
     Program PWSCF v.6.4.1 starts on 31Mar2023 at 14:58:11 

     This program is part of the open-source Quantum ESPRESSO suite
     for quantum simulation of materials; please cite
         "P. Giannozzi et al., J. Phys.:Condens. Matter 21 395502 (2009);
         "P. Giannozzi et al., J. Phys.:Condens. Matter 29 465901 (2017);
          URL http://www.quantum-espresso.org", 
     in publications or presentations arising from this work. More details at
     http://www.quantum-espresso.org/quote

     Parallel version (MPI & OpenMP), running on      24 processor cores
     Number of MPI processes:                24
     Threads/MPI process:                     1

     MPI processes distributed on     3 nodes
     R & G space division:  proc/nbgrp/npool/nimage =      24
     Waiting for input...
     Reading input from standard input
Warning: card &CELL ignored
Warning: card CELL_DYNAMICS='BFGS', ignored
Warning: card PRESS_CONV_THR =  2.00000E-01 ignored
Warning: card / ignored

     Current dimensions of program PWSCF are:
     Max number of different atomic species (ntypx) = 10
     Max number of k-points (npk) =  40000
     Max angular momentum in pseudopotentials (lmaxx) =  3
               file Zn.pbe-dnl-rrkjus_psl.1.0.0.UPF: wavefunction(s)  3D renormalized

     Subspace diagonalization in iterative solution of the eigenvalue problem:
     one sub-group per band group will be used
     scalapack distributed-memory algorithm (size of sub-group:  3*  3 procs)

     Found symmetry operation: I + (  0.0000  0.5000  0.5000)
     This is a supercell, fractional translations are disabled
 
     Parallelization info
     --------------------
     sticks:   dense  smooth     PW     G-vecs:    dense   smooth      PW
     Min         166      61     18                 7882     1787     281
     Max         167      62     19                 7887     1790     282
     Sum        3985    1481    437               189191    42931    6763
 

     Title: 
     Optimization of ZnS unit cell                                              


     bravais-lattice index     =            1
     lattice parameter (alat)  =      10.2835  a.u.
     unit-cell volume          =    1087.4757 (a.u.)^3
     number of atoms/cell      =            8
     number of atomic types    =            2
     number of electrons       =        72.00
     number of Kohn-Sham states=           36
     kinetic-energy cutoff     =      44.0000  Ry
     charge density cutoff     =     473.0000  Ry
     convergence threshold     =      1.0E-06
     mixing beta               =       0.7000
     number of iterations used =            8  plain     mixing
     Exchange-correlation      = PBE ( 1  4  3  4 0 0)
     nstep                     =          100


     celldm(1)=  10.283474  celldm(2)=   0.000000  celldm(3)=   0.000000
     celldm(4)=   0.000000  celldm(5)=   0.000000  celldm(6)=   0.000000

     crystal axes: (cart. coord. in units of alat)
               a(1) = (   1.000000   0.000000   0.000000 )  
               a(2) = (   0.000000   1.000000   0.000000 )  
               a(3) = (   0.000000   0.000000   1.000000 )  

     reciprocal axes: (cart. coord. in units 2 pi/alat)
               b(1) = (  1.000000  0.000000  0.000000 )  
               b(2) = (  0.000000  1.000000  0.000000 )  
               b(3) = (  0.000000  0.000000  1.000000 )  


     PseudoPot. # 1 for Zn read from file:
     /scratch/22gg91j21/spha/pseudo/Zn.pbe-dnl-rrkjus_psl.1.0.0.UPF
     MD5 check sum: 7f56cabf9682ed8c977c2f7d0c5985c5
     Pseudo is Ultrasoft + core correction, Zval = 12.0
     Generated using "atomic" code by A. Dal Corso v.6.2.2
     Using radial grid of 1201 points,  6 beta functions with: 
                l(1) =   0
                l(2) =   0
                l(3) =   1
                l(4) =   1
                l(5) =   2
                l(6) =   2
     Q(r) pseudized with 0 coefficients 


     PseudoPot. # 2 for S  read from file:
     /scratch/22gg91j21/spha/pseudo/S.pbe-nl-rrkjus_psl.1.0.0.UPF
     MD5 check sum: 816524f9d2370a67bf2b5249ef8e004b
     Pseudo is Ultrasoft + core correction, Zval =  6.0
     Generated using "atomic" code by A. Dal Corso v.6.3
     Using radial grid of 1151 points,  4 beta functions with: 
                l(1) =   0
                l(2) =   0
                l(3) =   1
                l(4) =   1
     Q(r) pseudized with 0 coefficients 


     atomic species   valence    mass     pseudopotential
        Zn            12.00    65.38000     Zn( 1.00)
        S              6.00    32.06500     S ( 1.00)

     No symmetry found



   Cartesian axes

     site n.     atom                  positions (alat units)
         1           Zn  tau(   1) = (   0.0000000   0.0000000   0.0000000  )
         2           Zn  tau(   2) = (   0.0000000   0.4999998   0.4999998  )
         3           Zn  tau(   3) = (   0.4999998   0.0000000   0.4999998  )
         4           Zn  tau(   4) = (   0.4999998   0.4999998   0.0000000  )
         5           S   tau(   5) = (   0.2500002   0.2500002   0.2500002  )
         6           S   tau(   6) = (   0.2500002   0.7499994   0.7499994  )
         7           S   tau(   7) = (   0.7499994   0.2500002   0.7499994  )
         8           S   tau(   8) = (   0.7499994   0.7499994   0.2500002  )

     number of k points=   260

     Number of k-points >= 100: set verbosity='high' to print them.

     Dense  grid:   189191 G-vectors     FFT dimensions: (  72,  72,  72)

     Smooth grid:    42931 G-vectors     FFT dimensions: (  45,  45,  45)

     Estimated max dynamical RAM per process >      67.69 MB

     Estimated total dynamical RAM >       1.59 GB

     Initial potential from superposition of free atoms

     starting charge   71.98497, renormalised to   72.00000
     Starting wfcs are   52 randomized atomic wfcs

     total cpu time spent up to now is       11.4 secs

     Self-consistent Calculation

     iteration #  1     ecut=    44.00 Ry     beta= 0.70
     Davidson diagonalization with overlap
     ethr =  1.00E-02,  avg # of iterations =  2.0

     Threshold (ethr) on eigenvalues was too large:
     Diagonalizing with lowered threshold

     Davidson diagonalization with overlap
     ethr =  3.23E-04,  avg # of iterations =  2.9

     total cpu time spent up to now is       54.0 secs

     total energy              =    -677.51957414 Ry
     Harris-Foulkes estimate   =    -677.64332603 Ry
     estimated scf accuracy    <       0.23253735 Ry

     iteration #  2     ecut=    44.00 Ry     beta= 0.70
     Davidson diagonalization with overlap
     ethr =  3.23E-04,  avg # of iterations =  3.0

     total cpu time spent up to now is       79.7 secs

     total energy              =    -677.56984096 Ry
     Harris-Foulkes estimate   =    -677.59862361 Ry
     estimated scf accuracy    <       0.05179385 Ry

     iteration #  3     ecut=    44.00 Ry     beta= 0.70
     Davidson diagonalization with overlap
     ethr =  7.19E-05,  avg # of iterations =  3.0

     total cpu time spent up to now is      101.6 secs

     total energy              =    -677.58046662 Ry
     Harris-Foulkes estimate   =    -677.58324815 Ry
     estimated scf accuracy    <       0.00535643 Ry

     iteration #  4     ecut=    44.00 Ry     beta= 0.70
     Davidson diagonalization with overlap
     ethr =  7.44E-06,  avg # of iterations =  3.9

     total cpu time spent up to now is      127.3 secs

     total energy              =    -677.58225593 Ry
     Harris-Foulkes estimate   =    -677.58328200 Ry
     estimated scf accuracy    <       0.00237864 Ry

     iteration #  5     ecut=    44.00 Ry     beta= 0.70
     Davidson diagonalization with overlap
     ethr =  3.30E-06,  avg # of iterations =  2.0

     total cpu time spent up to now is      147.1 secs

     total energy              =    -677.58260789 Ry
     Harris-Foulkes estimate   =    -677.58265317 Ry
     estimated scf accuracy    <       0.00006651 Ry

     iteration #  6     ecut=    44.00 Ry     beta= 0.70
     Davidson diagonalization with overlap
     ethr =  9.24E-08,  avg # of iterations =  3.6

     total cpu time spent up to now is      172.0 secs

     total energy              =    -677.58264900 Ry
     Harris-Foulkes estimate   =    -677.58269631 Ry
     estimated scf accuracy    <       0.00009237 Ry

     iteration #  7     ecut=    44.00 Ry     beta= 0.70
     Davidson diagonalization with overlap
     ethr =  9.24E-08,  avg # of iterations =  3.0

     total cpu time spent up to now is      191.1 secs

     End of self-consistent calculation

     Number of k-points >= 100: set verbosity='high' to print the bands.

     highest occupied level (ev):     5.5510

!    total energy              =    -677.58266357 Ry
     Harris-Foulkes estimate   =    -677.58266410 Ry
     estimated scf accuracy    <       0.00000064 Ry

     The total energy is the sum of the following terms:

     one-electron contribution =    -347.65030160 Ry
     hartree contribution      =     245.40511554 Ry
     xc contribution           =    -209.40901231 Ry
     ewald contribution        =    -365.92846519 Ry

     convergence has been achieved in   7 iterations

     Forces acting on atoms (cartesian axes, Ry/au):

     atom    1 type  1   force =     0.00000782   -0.00001134    0.00000834
     atom    2 type  1   force =     0.00000637    0.00000795   -0.00000752
     atom    3 type  1   force =    -0.00000830   -0.00001138   -0.00000707
     atom    4 type  1   force =    -0.00000933    0.00001376    0.00000795
     atom    5 type  2   force =     0.00000143    0.00000159   -0.00000101
     atom    6 type  2   force =     0.00000076   -0.00000123   -0.00000003
     atom    7 type  2   force =     0.00000048    0.00000187   -0.00000006
     atom    8 type  2   force =     0.00000077   -0.00000122   -0.00000060

     Total force =     0.000032     Total SCF correction =     0.000075
     SCF correction compared to forces is large: reduce conv_thr to get better values


     Computing stress (Cartesian axis) and pressure

          total   stress  (Ry/bohr**3)                   (kbar)     P=    0.45
   0.00000303   0.00000000   0.00000000          0.45      0.00      0.00
   0.00000000   0.00000303  -0.00000000          0.00      0.45     -0.00
   0.00000000  -0.00000000   0.00000303          0.00     -0.00      0.45


     BFGS Geometry Optimization

     bfgs converged in   1 scf cycles and   0 bfgs steps
     (criteria: energy <  1.0E-04 Ry, force <  1.0E-03 Ry/Bohr)

     End of BFGS Geometry Optimization

     Final energy   =    -677.5826635670 Ry
Begin final coordinates

ATOMIC_POSITIONS (angstrom)
Zn       0.000000000   0.000000000   0.000000000
Zn       0.000000000   2.720889000   2.720889000
Zn       2.720889000   0.000000000   2.720889000
Zn       2.720889000   2.720889000   0.000000000
S        1.360446000   1.360446000   1.360446000
S        1.360446000   4.081332000   4.081332000
S        4.081332000   1.360446000   4.081332000
S        4.081332000   4.081332000   1.360446000
End final coordinates



     Writing output data file ZnS_relax.save/
 
     init_run     :      8.99s CPU      9.53s WALL (       1 calls)
     electrons    :    174.52s CPU    179.70s WALL (       1 calls)
     forces       :      1.04s CPU      1.06s WALL (       1 calls)
     stress       :      3.10s CPU      3.15s WALL (       1 calls)

     Called by init_run:
     wfcinit      :      8.23s CPU      8.72s WALL (       1 calls)
     potinit      :      0.08s CPU      0.08s WALL (       1 calls)
     hinit0       :      0.52s CPU      0.55s WALL (       1 calls)

     Called by electrons:
     c_bands      :    156.19s CPU    160.67s WALL (       8 calls)
     sum_band     :     17.59s CPU     18.19s WALL (       8 calls)
     v_of_rho     :      0.23s CPU      0.24s WALL (       8 calls)
     newd         :      0.57s CPU      0.62s WALL (       8 calls)
     mix_rho      :      0.03s CPU      0.04s WALL (       8 calls)

     Called by c_bands:
     init_us_2    :      0.57s CPU      0.61s WALL (    4940 calls)
     cegterg      :    153.56s CPU    157.45s WALL (    2080 calls)

     Called by sum_band:
     sum_band:bec :      0.07s CPU      0.08s WALL (    2080 calls)
     addusdens    :      0.19s CPU      0.25s WALL (       8 calls)

     Called by *egterg:
     h_psi        :    109.17s CPU    112.56s WALL (    8417 calls)
     s_psi        :      0.99s CPU      1.02s WALL (    8417 calls)
     g_psi        :      0.16s CPU      0.16s WALL (    6077 calls)
     cdiaghg      :     35.58s CPU     36.21s WALL (    7897 calls)

     Called by h_psi:
     h_psi:pot    :    109.05s CPU    112.44s WALL (    8417 calls)
     h_psi:calbec :     17.50s CPU     18.05s WALL (    8417 calls)
     vloc_psi     :     90.32s CPU     93.13s WALL (    8417 calls)
     add_vuspsi   :      1.17s CPU      1.20s WALL (    8417 calls)

     General routines
     calbec       :     23.91s CPU     24.64s WALL (   11797 calls)
     fft          :      0.50s CPU      0.53s WALL (     128 calls)
     ffts         :      0.01s CPU      0.01s WALL (      16 calls)
     fftw         :     99.56s CPU    102.66s WALL (  535648 calls)
     interpolate  :      0.01s CPU      0.01s WALL (       8 calls)
 
     Parallel routines
     fft_scatt_xy :      6.25s CPU      6.48s WALL (  535792 calls)
     fft_scatt_yz :     74.35s CPU     76.53s WALL (  535792 calls)
 
     PWSCF        :   3m14.31s CPU   3m21.70s WALL

 
   This run was terminated on:  15: 1:32  31Mar2023            

=------------------------------------------------------------------------------=
   JOB DONE.
=------------------------------------------------------------------------------=
