
     Program PWSCF v.6.4.1 starts on 31Mar2023 at 23:42:38 

     This program is part of the open-source Quantum ESPRESSO suite
     for quantum simulation of materials; please cite
         "P. Giannozzi et al., J. Phys.:Condens. Matter 21 395502 (2009);
         "P. Giannozzi et al., J. Phys.:Condens. Matter 29 465901 (2017);
          URL http://www.quantum-espresso.org", 
     in publications or presentations arising from this work. More details at
     http://www.quantum-espresso.org/quote

     Parallel version (MPI & OpenMP), running on      24 processor cores
     Number of MPI processes:                24
     Threads/MPI process:                     1

     MPI processes distributed on     1 nodes
     R & G space division:  proc/nbgrp/npool/nimage =      24
     Waiting for input...
     Reading input from standard input
Warning: card &DOS ignored
Warning: card     DEGAUSS =  1.00000E-02 ignored
Warning: card     DELTAE  =  1.00000E-02 ignored
Warning: card     EMAX    =  5.00000E+01 ignored
Warning: card     EMIN    = -5.00000E+01 ignored
Warning: card     NGAUSS  = 0 ignored
Warning: card / ignored
Warning: card &PROJWFC ignored
Warning: card     DEGAUSS =  1.00000E-02 ignored
Warning: card     DELTAE  =  1.00000E-02 ignored
Warning: card     EMAX    =  5.00000E+01 ignored
Warning: card     EMIN    = -5.00000E+01 ignored
Warning: card     NGAUSS  = 0 ignored
Warning: card / ignored

     Current dimensions of program PWSCF are:
     Max number of different atomic species (ntypx) = 10
     Max number of k-points (npk) =  40000
     Max angular momentum in pseudopotentials (lmaxx) =  3
     Message from routine iosys:
     wrong startingpot: use default (2)

     Atomic positions and unit cell read from directory:
     /scratch/22gg91j21/spha/pseudo/output/ZnS_relax.save/
 
               file Zn.pbe-dnl-rrkjus_psl.1.0.0.UPF: wavefunction(s)  3D renormalized

     Subspace diagonalization in iterative solution of the eigenvalue problem:
     one sub-group per band group will be used
     scalapack distributed-memory algorithm (size of sub-group:  3*  3 procs)

     Found symmetry operation: I + (  0.0000  0.5000  0.5000)
     This is a supercell, fractional translations are disabled
 
     Parallelization info
     --------------------
     sticks:   dense  smooth     PW     G-vecs:    dense   smooth      PW
     Min         166      61     18                 7882     1787     281
     Max         167      62     19                 7887     1790     282
     Sum        3985    1481    437               189191    42931    6763
 

     Title: 
     Optimization of ZnS unit cell                                              


     bravais-lattice index     =            1
     lattice parameter (alat)  =      10.2835  a.u.
     unit-cell volume          =    1087.4757 (a.u.)^3
     number of atoms/cell      =            8
     number of atomic types    =            2
     number of electrons       =        72.00
     number of Kohn-Sham states=           52
     kinetic-energy cutoff     =      44.0000  Ry
     charge density cutoff     =     473.0000  Ry
     Exchange-correlation      = PBE ( 1  4  3  4 0 0)

     celldm(1)=  10.283474  celldm(2)=   0.000000  celldm(3)=   0.000000
     celldm(4)=   0.000000  celldm(5)=   0.000000  celldm(6)=   0.000000

     crystal axes: (cart. coord. in units of alat)
               a(1) = (   1.000000   0.000000   0.000000 )  
               a(2) = (   0.000000   1.000000   0.000000 )  
               a(3) = (   0.000000   0.000000   1.000000 )  

     reciprocal axes: (cart. coord. in units 2 pi/alat)
               b(1) = (  1.000000  0.000000  0.000000 )  
               b(2) = (  0.000000  1.000000  0.000000 )  
               b(3) = (  0.000000  0.000000  1.000000 )  


     PseudoPot. # 1 for Zn read from file:
     /scratch/22gg91j21/spha/pseudo/Zn.pbe-dnl-rrkjus_psl.1.0.0.UPF
     MD5 check sum: 7f56cabf9682ed8c977c2f7d0c5985c5
     Pseudo is Ultrasoft + core correction, Zval = 12.0
     Generated using "atomic" code by A. Dal Corso v.6.2.2
     Using radial grid of 1201 points,  6 beta functions with: 
                l(1) =   0
                l(2) =   0
                l(3) =   1
                l(4) =   1
                l(5) =   2
                l(6) =   2
     Q(r) pseudized with 0 coefficients 


     PseudoPot. # 2 for S  read from file:
     /scratch/22gg91j21/spha/pseudo/S.pbe-nl-rrkjus_psl.1.0.0.UPF
     MD5 check sum: 816524f9d2370a67bf2b5249ef8e004b
     Pseudo is Ultrasoft + core correction, Zval =  6.0
     Generated using "atomic" code by A. Dal Corso v.6.3
     Using radial grid of 1151 points,  4 beta functions with: 
                l(1) =   0
                l(2) =   0
                l(3) =   1
                l(4) =   1
     Q(r) pseudized with 0 coefficients 


     atomic species   valence    mass     pseudopotential
        Zn            12.00    65.38000     Zn( 1.00)
        S              6.00    32.06500     S ( 1.00)

     24 Sym. Ops. (no inversion) found



   Cartesian axes

     site n.     atom                  positions (alat units)
         1           Zn  tau(   1) = (   0.0000000   0.0000000   0.0000000  )
         2           Zn  tau(   2) = (   0.0000000   0.4999998   0.4999998  )
         3           Zn  tau(   3) = (   0.4999998   0.0000000   0.4999998  )
         4           Zn  tau(   4) = (   0.4999998   0.4999998   0.0000000  )
         5           S   tau(   5) = (   0.2500002   0.2500002   0.2500002  )
         6           S   tau(   6) = (   0.2500002   0.7499994   0.7499994  )
         7           S   tau(   7) = (   0.7499994   0.2500002   0.7499994  )
         8           S   tau(   8) = (   0.7499994   0.7499994   0.2500002  )

     number of k points=   165

     Number of k-points >= 100: set verbosity='high' to print them.

     Dense  grid:   189191 G-vectors     FFT dimensions: (  72,  72,  72)

     Smooth grid:    42931 G-vectors     FFT dimensions: (  45,  45,  45)

     Estimated max dynamical RAM per process >      31.47 MB

     Estimated total dynamical RAM >     755.35 MB

     The potential is recalculated from file :
     /scratch/22gg91j21/spha/pseudo/output/ZnS_relax.save/charge-density

     Starting wfcs are   52 randomized atomic wfcs

     Band Structure Calculation
     Davidson diagonalization with overlap

     ethr =  1.39E-09,  avg # of iterations = 17.4

     total cpu time spent up to now is       62.5 secs

     End of band structure calculation

     Number of k-points >= 100: set verbosity='high' to print the bands.

     highest occupied, lowest unoccupied level (ev):     5.5494    7.5574

     Writing output data file ZnS_relax.save/
 
     init_run     :      0.19s CPU      0.37s WALL (       1 calls)
     electrons    :     56.44s CPU     61.01s WALL (       1 calls)

     Called by init_run:
     wfcinit      :      0.00s CPU      0.01s WALL (       1 calls)
     potinit      :      0.01s CPU      0.07s WALL (       1 calls)
     hinit0       :      0.06s CPU      0.15s WALL (       1 calls)

     Called by electrons:
     c_bands      :     56.44s CPU     61.01s WALL (       1 calls)
     v_of_rho     :      0.01s CPU      0.01s WALL (       1 calls)
     newd         :      0.02s CPU      0.06s WALL (       1 calls)

     Called by c_bands:
     init_us_2    :      0.02s CPU      0.03s WALL (     165 calls)
     cegterg      :     51.54s CPU     55.32s WALL (     205 calls)

     Called by sum_band:

     Called by *egterg:
     h_psi        :     26.53s CPU     27.81s WALL (    3244 calls)
     s_psi        :      0.44s CPU      0.46s WALL (    3244 calls)
     g_psi        :      0.09s CPU      0.09s WALL (    2874 calls)
     cdiaghg      :     22.69s CPU     25.46s WALL (    3039 calls)

     Called by h_psi:
     h_psi:pot    :     26.46s CPU     27.74s WALL (    3244 calls)
     h_psi:calbec :      0.80s CPU      0.87s WALL (    3244 calls)
     vloc_psi     :     25.13s CPU     26.30s WALL (    3244 calls)
     add_vuspsi   :      0.52s CPU      0.55s WALL (    3244 calls)

     General routines
     calbec       :      0.79s CPU      0.86s WALL (    3244 calls)
     fft          :      0.01s CPU      0.07s WALL (      13 calls)
     ffts         :      0.00s CPU      0.00s WALL (       1 calls)
     fftw         :     24.12s CPU     25.24s WALL (  199140 calls)
     interpolate  :      0.00s CPU      0.00s WALL (       1 calls)
     davcio       :      0.05s CPU      0.08s WALL (     330 calls)
 
     Parallel routines
     fft_scatt_xy :      2.13s CPU      2.23s WALL (  199154 calls)
     fft_scatt_yz :     14.77s CPU     15.47s WALL (  199154 calls)
 
     PWSCF        :     58.39s CPU   1m 7.22s WALL

 
   This run was terminated on:  23:43:45  31Mar2023            

=------------------------------------------------------------------------------=
   JOB DONE.
=------------------------------------------------------------------------------=
