
     Program PWSCF v.6.4.1 starts on 12Apr2023 at 12: 3:18 

     This program is part of the open-source Quantum ESPRESSO suite
     for quantum simulation of materials; please cite
         "P. Giannozzi et al., J. Phys.:Condens. Matter 21 395502 (2009);
         "P. Giannozzi et al., J. Phys.:Condens. Matter 29 465901 (2017);
          URL http://www.quantum-espresso.org", 
     in publications or presentations arising from this work. More details at
     http://www.quantum-espresso.org/quote

     Parallel version (MPI & OpenMP), running on      24 processor cores
     Number of MPI processes:                24
     Threads/MPI process:                     1

     MPI processes distributed on     3 nodes
     R & G space division:  proc/nbgrp/npool/nimage =      24
     Waiting for input...
     Reading input from standard input

     Current dimensions of program PWSCF are:
     Max number of different atomic species (ntypx) = 10
     Max number of k-points (npk) =  40000
     Max angular momentum in pseudopotentials (lmaxx) =  3
               file Zn.pbe-dnl-rrkjus_psl.1.0.0.UPF: wavefunction(s)  3D renormalized

     Subspace diagonalization in iterative solution of the eigenvalue problem:
     one sub-group per band group will be used
     scalapack distributed-memory algorithm (size of sub-group:  3*  3 procs)

     Found symmetry operation: I + (  0.0000 -0.5000 -0.5000)
     This is a supercell, fractional translations are disabled
 
     Parallelization info
     --------------------
     sticks:   dense  smooth     PW     G-vecs:    dense   smooth      PW
     Min          61      61     18                 1787     1787     281
     Max          62      62     19                 1790     1790     282
     Sum        1481    1481    437                42931    42931    6763
 


     bravais-lattice index     =            1
     lattice parameter (alat)  =      10.2835  a.u.
     unit-cell volume          =    1087.4745 (a.u.)^3
     number of atoms/cell      =            8
     number of atomic types    =            2
     number of electrons       =        72.00
     number of Kohn-Sham states=           52
     kinetic-energy cutoff     =      44.0000  Ry
     charge density cutoff     =     176.0000  Ry
     convergence threshold     =      1.0E-06
     mixing beta               =       0.7000
     number of iterations used =            8  plain     mixing
     Exchange-correlation      = PBE ( 1  4  3  4 0 0)

     celldm(1)=  10.283470  celldm(2)=   0.000000  celldm(3)=   0.000000
     celldm(4)=   0.000000  celldm(5)=   0.000000  celldm(6)=   0.000000

     crystal axes: (cart. coord. in units of alat)
               a(1) = (   1.000000   0.000000   0.000000 )  
               a(2) = (   0.000000   1.000000   0.000000 )  
               a(3) = (   0.000000   0.000000   1.000000 )  

     reciprocal axes: (cart. coord. in units 2 pi/alat)
               b(1) = (  1.000000  0.000000  0.000000 )  
               b(2) = (  0.000000  1.000000  0.000000 )  
               b(3) = (  0.000000  0.000000  1.000000 )  


     PseudoPot. # 1 for Zn read from file:
     /scratch/22gg91j21/spha/pseudo/Zn.pbe-dnl-rrkjus_psl.1.0.0.UPF
     MD5 check sum: 7f56cabf9682ed8c977c2f7d0c5985c5
     Pseudo is Ultrasoft + core correction, Zval = 12.0
     Generated using "atomic" code by A. Dal Corso v.6.2.2
     Using radial grid of 1201 points,  6 beta functions with: 
                l(1) =   0
                l(2) =   0
                l(3) =   1
                l(4) =   1
                l(5) =   2
                l(6) =   2
     Q(r) pseudized with 0 coefficients 


     PseudoPot. # 2 for S  read from file:
     /scratch/22gg91j21/spha/pseudo/S.pbe-nl-rrkjus_psl.1.0.0.UPF
     MD5 check sum: 816524f9d2370a67bf2b5249ef8e004b
     Pseudo is Ultrasoft + core correction, Zval =  6.0
     Generated using "atomic" code by A. Dal Corso v.6.3
     Using radial grid of 1151 points,  4 beta functions with: 
                l(1) =   0
                l(2) =   0
                l(3) =   1
                l(4) =   1
     Q(r) pseudized with 0 coefficients 


     atomic species   valence    mass     pseudopotential
        Zn            12.00    65.38000     Zn( 1.00)
        S              6.00    32.06500     S ( 1.00)

     24 Sym. Ops. (no inversion) found


                                    s                        frac. trans.

      isym =  1     identity                                     

 cryst.   s( 1) = (     1          0          0      )
                  (     0          1          0      )
                  (     0          0          1      )

 cart.    s( 1) = (  1.0000000  0.0000000  0.0000000 )
                  (  0.0000000  1.0000000  0.0000000 )
                  (  0.0000000  0.0000000  1.0000000 )


      isym =  2     180 deg rotation - cart. axis [0,0,1]        

 cryst.   s( 2) = (    -1          0          0      )
                  (     0         -1          0      )
                  (     0          0          1      )

 cart.    s( 2) = ( -1.0000000  0.0000000  0.0000000 )
                  (  0.0000000 -1.0000000  0.0000000 )
                  (  0.0000000  0.0000000  1.0000000 )


      isym =  3     180 deg rotation - cart. axis [0,1,0]        

 cryst.   s( 3) = (    -1          0          0      )
                  (     0          1          0      )
                  (     0          0         -1      )

 cart.    s( 3) = ( -1.0000000  0.0000000  0.0000000 )
                  (  0.0000000  1.0000000  0.0000000 )
                  (  0.0000000  0.0000000 -1.0000000 )


      isym =  4     180 deg rotation - cart. axis [1,0,0]        

 cryst.   s( 4) = (     1          0          0      )
                  (     0         -1          0      )
                  (     0          0         -1      )

 cart.    s( 4) = (  1.0000000  0.0000000  0.0000000 )
                  (  0.0000000 -1.0000000  0.0000000 )
                  (  0.0000000  0.0000000 -1.0000000 )


      isym =  5     120 deg rotation - cart. axis [-1,-1,-1]     

 cryst.   s( 5) = (     0          0          1      )
                  (     1          0          0      )
                  (     0          1          0      )

 cart.    s( 5) = (  0.0000000  1.0000000  0.0000000 )
                  (  0.0000000  0.0000000  1.0000000 )
                  (  1.0000000  0.0000000  0.0000000 )


      isym =  6     120 deg rotation - cart. axis [-1,1,1]       

 cryst.   s( 6) = (     0          0         -1      )
                  (    -1          0          0      )
                  (     0          1          0      )

 cart.    s( 6) = (  0.0000000 -1.0000000  0.0000000 )
                  (  0.0000000  0.0000000  1.0000000 )
                  ( -1.0000000  0.0000000  0.0000000 )


      isym =  7     120 deg rotation - cart. axis [1,1,-1]       

 cryst.   s( 7) = (     0          0         -1      )
                  (     1          0          0      )
                  (     0         -1          0      )

 cart.    s( 7) = (  0.0000000  1.0000000  0.0000000 )
                  (  0.0000000  0.0000000 -1.0000000 )
                  ( -1.0000000  0.0000000  0.0000000 )


      isym =  8     120 deg rotation - cart. axis [1,-1,1]       

 cryst.   s( 8) = (     0          0          1      )
                  (    -1          0          0      )
                  (     0         -1          0      )

 cart.    s( 8) = (  0.0000000 -1.0000000  0.0000000 )
                  (  0.0000000  0.0000000 -1.0000000 )
                  (  1.0000000  0.0000000  0.0000000 )


      isym =  9     120 deg rotation - cart. axis [1,1,1]        

 cryst.   s( 9) = (     0          1          0      )
                  (     0          0          1      )
                  (     1          0          0      )

 cart.    s( 9) = (  0.0000000  0.0000000  1.0000000 )
                  (  1.0000000  0.0000000  0.0000000 )
                  (  0.0000000  1.0000000  0.0000000 )


      isym = 10     120 deg rotation - cart. axis [-1,1,-1]      

 cryst.   s(10) = (     0         -1          0      )
                  (     0          0         -1      )
                  (     1          0          0      )

 cart.    s(10) = (  0.0000000  0.0000000  1.0000000 )
                  ( -1.0000000  0.0000000  0.0000000 )
                  (  0.0000000 -1.0000000  0.0000000 )


      isym = 11     120 deg rotation - cart. axis [1,-1,-1]      

 cryst.   s(11) = (     0         -1          0      )
                  (     0          0          1      )
                  (    -1          0          0      )

 cart.    s(11) = (  0.0000000  0.0000000 -1.0000000 )
                  ( -1.0000000  0.0000000  0.0000000 )
                  (  0.0000000  1.0000000  0.0000000 )


      isym = 12     120 deg rotation - cart. axis [-1,-1,1]      

 cryst.   s(12) = (     0          1          0      )
                  (     0          0         -1      )
                  (    -1          0          0      )

 cart.    s(12) = (  0.0000000  0.0000000 -1.0000000 )
                  (  1.0000000  0.0000000  0.0000000 )
                  (  0.0000000 -1.0000000  0.0000000 )


      isym = 13     inv. 180 deg rotation - cart. axis [1,1,0]   

 cryst.   s(13) = (     0         -1          0      )
                  (    -1          0          0      )
                  (     0          0          1      )

 cart.    s(13) = (  0.0000000 -1.0000000  0.0000000 )
                  ( -1.0000000  0.0000000  0.0000000 )
                  (  0.0000000  0.0000000  1.0000000 )


      isym = 14     inv. 180 deg rotation - cart. axis [1,-1,0]  

 cryst.   s(14) = (     0          1          0      )
                  (     1          0          0      )
                  (     0          0          1      )

 cart.    s(14) = (  0.0000000  1.0000000  0.0000000 )
                  (  1.0000000  0.0000000  0.0000000 )
                  (  0.0000000  0.0000000  1.0000000 )


      isym = 15     inv.  90 deg rotation - cart. axis [0,0,-1]  

 cryst.   s(15) = (     0          1          0      )
                  (    -1          0          0      )
                  (     0          0         -1      )

 cart.    s(15) = (  0.0000000 -1.0000000  0.0000000 )
                  (  1.0000000  0.0000000  0.0000000 )
                  (  0.0000000  0.0000000 -1.0000000 )


      isym = 16     inv.  90 deg rotation - cart. axis [0,0,1]   

 cryst.   s(16) = (     0         -1          0      )
                  (     1          0          0      )
                  (     0          0         -1      )

 cart.    s(16) = (  0.0000000  1.0000000  0.0000000 )
                  ( -1.0000000  0.0000000  0.0000000 )
                  (  0.0000000  0.0000000 -1.0000000 )


      isym = 17     inv. 180 deg rotation - cart. axis [1,0,1]   

 cryst.   s(17) = (     0          0         -1      )
                  (     0          1          0      )
                  (    -1          0          0      )

 cart.    s(17) = (  0.0000000  0.0000000 -1.0000000 )
                  (  0.0000000  1.0000000  0.0000000 )
                  ( -1.0000000  0.0000000  0.0000000 )


      isym = 18     inv. 180 deg rotation - cart. axis [-1,0,1]  

 cryst.   s(18) = (     0          0          1      )
                  (     0          1          0      )
                  (     1          0          0      )

 cart.    s(18) = (  0.0000000  0.0000000  1.0000000 )
                  (  0.0000000  1.0000000  0.0000000 )
                  (  1.0000000  0.0000000  0.0000000 )


      isym = 19     inv.  90 deg rotation - cart. axis [0,1,0]   

 cryst.   s(19) = (     0          0          1      )
                  (     0         -1          0      )
                  (    -1          0          0      )

 cart.    s(19) = (  0.0000000  0.0000000 -1.0000000 )
                  (  0.0000000 -1.0000000  0.0000000 )
                  (  1.0000000  0.0000000  0.0000000 )


      isym = 20     inv.  90 deg rotation - cart. axis [0,-1,0]  

 cryst.   s(20) = (     0          0         -1      )
                  (     0         -1          0      )
                  (     1          0          0      )

 cart.    s(20) = (  0.0000000  0.0000000  1.0000000 )
                  (  0.0000000 -1.0000000  0.0000000 )
                  ( -1.0000000  0.0000000  0.0000000 )


      isym = 21     inv. 180 deg rotation - cart. axis [0,1,1]   

 cryst.   s(21) = (     1          0          0      )
                  (     0          0         -1      )
                  (     0         -1          0      )

 cart.    s(21) = (  1.0000000  0.0000000  0.0000000 )
                  (  0.0000000  0.0000000 -1.0000000 )
                  (  0.0000000 -1.0000000  0.0000000 )


      isym = 22     inv. 180 deg rotation - cart. axis [0,1,-1]  

 cryst.   s(22) = (     1          0          0      )
                  (     0          0          1      )
                  (     0          1          0      )

 cart.    s(22) = (  1.0000000  0.0000000  0.0000000 )
                  (  0.0000000  0.0000000  1.0000000 )
                  (  0.0000000  1.0000000  0.0000000 )


      isym = 23     inv.  90 deg rotation - cart. axis [-1,0,0]  

 cryst.   s(23) = (    -1          0          0      )
                  (     0          0          1      )
                  (     0         -1          0      )

 cart.    s(23) = ( -1.0000000  0.0000000  0.0000000 )
                  (  0.0000000  0.0000000 -1.0000000 )
                  (  0.0000000  1.0000000  0.0000000 )


      isym = 24     inv.  90 deg rotation - cart. axis [1,0,0]   

 cryst.   s(24) = (    -1          0          0      )
                  (     0          0         -1      )
                  (     0          1          0      )

 cart.    s(24) = ( -1.0000000  0.0000000  0.0000000 )
                  (  0.0000000  0.0000000  1.0000000 )
                  (  0.0000000 -1.0000000  0.0000000 )


     point group T_d (-43m) 
     there are  5 classes
     the character table:

       E     8C3   3C2   6S4   6s_d 
A_1    1.00  1.00  1.00  1.00  1.00
A_2    1.00  1.00  1.00 -1.00 -1.00
E      2.00 -1.00  2.00  0.00  0.00
T_1    3.00  0.00 -1.00  1.00 -1.00
T_2    3.00  0.00 -1.00 -1.00  1.00

     the symmetry operations in each class and the name of the first element:

     E        1
          identity                                               
     8C3      5    7    8    6   12    9   10   11
          120 deg rotation - cart. axis [-1,-1,-1]               
     3C2      2    3    4
          180 deg rotation - cart. axis [0,0,1]                  
     6S4     15   16   20   19   23   24
          inv.  90 deg rotation - cart. axis [0,0,-1]            
     6s_d    13   14   17   18   21   22
          inv. 180 deg rotation - cart. axis [1,1,0]             

   Cartesian axes

     site n.     atom                  positions (alat units)
         1           Zn  tau(   1) = (   0.0000000   0.0000000   0.0000000  )
         2           Zn  tau(   2) = (   0.0000000   0.5000000   0.5000000  )
         3           Zn  tau(   3) = (   0.5000000   0.0000000   0.5000000  )
         4           Zn  tau(   4) = (   0.5000000   0.5000000   0.0000000  )
         5           S   tau(   5) = (   0.2500003   0.2500003   0.2500003  )
         6           S   tau(   6) = (   0.2500003   0.7499997   0.7499997  )
         7           S   tau(   7) = (   0.7499997   0.2500003   0.7499997  )
         8           S   tau(   8) = (   0.7499997   0.7499997   0.2500003  )

   Crystallographic axes

     site n.     atom                  positions (cryst. coord.)
         1           Zn  tau(   1) = (  0.0000000  0.0000000  0.0000000  )
         2           Zn  tau(   2) = (  0.0000000  0.5000000  0.5000000  )
         3           Zn  tau(   3) = (  0.5000000  0.0000000  0.5000000  )
         4           Zn  tau(   4) = (  0.5000000  0.5000000  0.0000000  )
         5           S   tau(   5) = (  0.2500003  0.2500003  0.2500003  )
         6           S   tau(   6) = (  0.2500003  0.7499997  0.7499997  )
         7           S   tau(   7) = (  0.7499997  0.2500003  0.7499997  )
         8           S   tau(   8) = (  0.7499997  0.7499997  0.2500003  )

     number of k points=    35
                       cart. coord. in units 2pi/alat
        k(    1) = (   0.0000000   0.0000000   0.0000000), wk =   0.0039062
        k(    2) = (   0.0000000   0.0000000   0.1250000), wk =   0.0234375
        k(    3) = (   0.0000000   0.0000000   0.2500000), wk =   0.0234375
        k(    4) = (   0.0000000   0.0000000   0.3750000), wk =   0.0234375
        k(    5) = (   0.0000000   0.0000000  -0.5000000), wk =   0.0117188
        k(    6) = (   0.0000000   0.1250000   0.1250000), wk =   0.0468750
        k(    7) = (   0.0000000   0.1250000   0.2500000), wk =   0.0937500
        k(    8) = (   0.0000000   0.1250000   0.3750000), wk =   0.0937500
        k(    9) = (   0.0000000   0.1250000  -0.5000000), wk =   0.0468750
        k(   10) = (   0.0000000   0.2500000   0.2500000), wk =   0.0468750
        k(   11) = (   0.0000000   0.2500000   0.3750000), wk =   0.0937500
        k(   12) = (   0.0000000   0.2500000  -0.5000000), wk =   0.0468750
        k(   13) = (   0.0000000   0.3750000   0.3750000), wk =   0.0468750
        k(   14) = (   0.0000000   0.3750000  -0.5000000), wk =   0.0468750
        k(   15) = (   0.0000000  -0.5000000  -0.5000000), wk =   0.0117188
        k(   16) = (   0.1250000   0.1250000   0.1250000), wk =   0.0312500
        k(   17) = (   0.1250000   0.1250000   0.2500000), wk =   0.0937500
        k(   18) = (   0.1250000   0.1250000   0.3750000), wk =   0.0937500
        k(   19) = (   0.1250000   0.1250000  -0.5000000), wk =   0.0468750
        k(   20) = (   0.1250000   0.2500000   0.2500000), wk =   0.0937500
        k(   21) = (   0.1250000   0.2500000   0.3750000), wk =   0.1875000
        k(   22) = (   0.1250000   0.2500000  -0.5000000), wk =   0.0937500
        k(   23) = (   0.1250000   0.3750000   0.3750000), wk =   0.0937500
        k(   24) = (   0.1250000   0.3750000  -0.5000000), wk =   0.0937500
        k(   25) = (   0.1250000  -0.5000000  -0.5000000), wk =   0.0234375
        k(   26) = (   0.2500000   0.2500000   0.2500000), wk =   0.0312500
        k(   27) = (   0.2500000   0.2500000   0.3750000), wk =   0.0937500
        k(   28) = (   0.2500000   0.2500000  -0.5000000), wk =   0.0468750
        k(   29) = (   0.2500000   0.3750000   0.3750000), wk =   0.0937500
        k(   30) = (   0.2500000   0.3750000  -0.5000000), wk =   0.0937500
        k(   31) = (   0.2500000  -0.5000000  -0.5000000), wk =   0.0234375
        k(   32) = (   0.3750000   0.3750000   0.3750000), wk =   0.0312500
        k(   33) = (   0.3750000   0.3750000  -0.5000000), wk =   0.0468750
        k(   34) = (   0.3750000  -0.5000000  -0.5000000), wk =   0.0234375
        k(   35) = (  -0.5000000  -0.5000000  -0.5000000), wk =   0.0039062

                       cryst. coord.
        k(    1) = (   0.0000000   0.0000000   0.0000000), wk =   0.0039062
        k(    2) = (   0.0000000   0.0000000   0.1250000), wk =   0.0234375
        k(    3) = (   0.0000000   0.0000000   0.2500000), wk =   0.0234375
        k(    4) = (   0.0000000   0.0000000   0.3750000), wk =   0.0234375
        k(    5) = (   0.0000000   0.0000000  -0.5000000), wk =   0.0117188
        k(    6) = (   0.0000000   0.1250000   0.1250000), wk =   0.0468750
        k(    7) = (   0.0000000   0.1250000   0.2500000), wk =   0.0937500
        k(    8) = (   0.0000000   0.1250000   0.3750000), wk =   0.0937500
        k(    9) = (   0.0000000   0.1250000  -0.5000000), wk =   0.0468750
        k(   10) = (   0.0000000   0.2500000   0.2500000), wk =   0.0468750
        k(   11) = (   0.0000000   0.2500000   0.3750000), wk =   0.0937500
        k(   12) = (   0.0000000   0.2500000  -0.5000000), wk =   0.0468750
        k(   13) = (   0.0000000   0.3750000   0.3750000), wk =   0.0468750
        k(   14) = (   0.0000000   0.3750000  -0.5000000), wk =   0.0468750
        k(   15) = (   0.0000000  -0.5000000  -0.5000000), wk =   0.0117188
        k(   16) = (   0.1250000   0.1250000   0.1250000), wk =   0.0312500
        k(   17) = (   0.1250000   0.1250000   0.2500000), wk =   0.0937500
        k(   18) = (   0.1250000   0.1250000   0.3750000), wk =   0.0937500
        k(   19) = (   0.1250000   0.1250000  -0.5000000), wk =   0.0468750
        k(   20) = (   0.1250000   0.2500000   0.2500000), wk =   0.0937500
        k(   21) = (   0.1250000   0.2500000   0.3750000), wk =   0.1875000
        k(   22) = (   0.1250000   0.2500000  -0.5000000), wk =   0.0937500
        k(   23) = (   0.1250000   0.3750000   0.3750000), wk =   0.0937500
        k(   24) = (   0.1250000   0.3750000  -0.5000000), wk =   0.0937500
        k(   25) = (   0.1250000  -0.5000000  -0.5000000), wk =   0.0234375
        k(   26) = (   0.2500000   0.2500000   0.2500000), wk =   0.0312500
        k(   27) = (   0.2500000   0.2500000   0.3750000), wk =   0.0937500
        k(   28) = (   0.2500000   0.2500000  -0.5000000), wk =   0.0468750
        k(   29) = (   0.2500000   0.3750000   0.3750000), wk =   0.0937500
        k(   30) = (   0.2500000   0.3750000  -0.5000000), wk =   0.0937500
        k(   31) = (   0.2500000  -0.5000000  -0.5000000), wk =   0.0234375
        k(   32) = (   0.3750000   0.3750000   0.3750000), wk =   0.0312500
        k(   33) = (   0.3750000   0.3750000  -0.5000000), wk =   0.0468750
        k(   34) = (   0.3750000  -0.5000000  -0.5000000), wk =   0.0234375
        k(   35) = (  -0.5000000  -0.5000000  -0.5000000), wk =   0.0039062

     Dense  grid:    42931 G-vectors     FFT dimensions: (  45,  45,  45)

     Dynamical RAM for                 wfc:       0.18 MB

     Dynamical RAM for     wfc (w. buffer):       6.37 MB

     Dynamical RAM for           str. fact:       0.05 MB

     Dynamical RAM for           local pot:       0.00 MB

     Dynamical RAM for          nlocal pot:       0.35 MB

     Dynamical RAM for                qrad:       3.48 MB

     Dynamical RAM for          rho,v,vnew:       0.17 MB

     Dynamical RAM for               rhoin:       0.06 MB

     Dynamical RAM for            rho*nmix:       0.44 MB

     Dynamical RAM for           G-vectors:       0.12 MB

     Dynamical RAM for          h,s,v(r/c):       0.22 MB

     Dynamical RAM for          <psi|beta>:       0.08 MB

     Dynamical RAM for                 psi:       0.71 MB

     Dynamical RAM for                hpsi:       0.71 MB

     Dynamical RAM for                spsi:       0.71 MB

     Dynamical RAM for      wfcinit/wfcrot:       0.42 MB

     Dynamical RAM for           addusdens:       5.19 MB

     Estimated static dynamical RAM per process >      11.29 MB

     Estimated max dynamical RAM per process >      16.47 MB

     Estimated total dynamical RAM >     395.40 MB

     Check: negative core charge=   -0.000022

     Initial potential from superposition of free atoms

     starting charge   71.98497, renormalised to   72.00000
     Starting wfcs are   52 randomized atomic wfcs

     total cpu time spent up to now is        1.8 secs

     Self-consistent Calculation

     iteration #  1     ecut=    44.00 Ry     beta= 0.70
     Davidson diagonalization with overlap
     ethr =  1.00E-02,  avg # of iterations =  4.5

     Threshold (ethr) on eigenvalues was too large:
     Diagonalizing with lowered threshold

     Davidson diagonalization with overlap
     ethr =  3.15E-04,  avg # of iterations =  2.1

     total cpu time spent up to now is        7.2 secs

     total energy              =    -677.52095195 Ry
     Harris-Foulkes estimate   =    -677.64446914 Ry
     estimated scf accuracy    <       0.23139736 Ry

     iteration #  2     ecut=    44.00 Ry     beta= 0.70
     Davidson diagonalization with overlap
     ethr =  3.21E-04,  avg # of iterations =  2.1

     total cpu time spent up to now is        9.8 secs

     total energy              =    -677.57007735 Ry
     Harris-Foulkes estimate   =    -677.60040172 Ry
     estimated scf accuracy    <       0.05471828 Ry

     iteration #  3     ecut=    44.00 Ry     beta= 0.70
     Davidson diagonalization with overlap
     ethr =  7.60E-05,  avg # of iterations =  2.8

     total cpu time spent up to now is       12.5 secs

     total energy              =    -677.58160148 Ry
     Harris-Foulkes estimate   =    -677.58454877 Ry
     estimated scf accuracy    <       0.00573649 Ry

     iteration #  4     ecut=    44.00 Ry     beta= 0.70
     Davidson diagonalization with overlap
     ethr =  7.97E-06,  avg # of iterations =  3.4

     total cpu time spent up to now is       15.6 secs

     total energy              =    -677.58317639 Ry
     Harris-Foulkes estimate   =    -677.58408204 Ry
     estimated scf accuracy    <       0.00205365 Ry

     iteration #  5     ecut=    44.00 Ry     beta= 0.70
     Davidson diagonalization with overlap
     ethr =  2.85E-06,  avg # of iterations =  2.4

     total cpu time spent up to now is       18.2 secs

     total energy              =    -677.58357092 Ry
     Harris-Foulkes estimate   =    -677.58357085 Ry
     estimated scf accuracy    <       0.00000545 Ry

     iteration #  6     ecut=    44.00 Ry     beta= 0.70
     Davidson diagonalization with overlap
     ethr =  7.57E-09,  avg # of iterations =  4.0

     total cpu time spent up to now is       21.6 secs

     End of self-consistent calculation

          k = 0.0000 0.0000 0.0000 (  5377 PWs)   bands (ev):

    -7.4554  -6.2642  -6.2642  -6.2642  -0.6865  -0.6865  -0.6865  -0.6674
    -0.6674  -0.6674  -0.3356  -0.3356  -0.3356  -0.3355  -0.3355  -0.3355
    -0.1854  -0.1854  -0.1140  -0.1140  -0.1134   0.0218   0.0218   0.0218
     1.0806   1.0806   1.0806   3.3999   3.3999   3.3999   3.3999   3.3999
     3.3999   5.5519   5.5519   5.5519   7.5596   9.0019   9.0019   9.0019
     9.6191   9.6191   9.6194  11.9401  11.9401  11.9401  16.3634  16.3635
    16.3638  17.3455  17.3456  17.3456

     occupation numbers 
     1.0000   1.0000   1.0000   1.0000   1.0000   1.0000   1.0000   1.0000
     1.0000   1.0000   1.0000   1.0000   1.0000   1.0000   1.0000   1.0000
     1.0000   1.0000   1.0000   1.0000   1.0000   1.0000   1.0000   1.0000
     1.0000   1.0000   1.0000   1.0000   1.0000   1.0000   1.0000   1.0000
     1.0000   1.0000   1.0000   1.0000   0.0000   0.0000   0.0000   0.0000
     0.0000   0.0000   0.0000   0.0000   0.0000   0.0000   0.0000   0.0000
     0.0000   0.0000   0.0000   0.0000

          k = 0.0000 0.0000 0.1250 (  5369 PWs)   bands (ev):

    -7.4169  -6.3184  -6.2633  -6.2633  -0.6904  -0.6725  -0.6654  -0.6653
    -0.6577  -0.6577  -0.3523  -0.3523  -0.3466  -0.3466  -0.3316  -0.3315
    -0.1897  -0.1827  -0.1203  -0.1199  -0.1165  -0.0463   0.0482   0.0482
     1.0778   1.0778   1.2745   3.3203   3.3203   3.3243   3.3243   3.4691
     3.4691   5.1891   5.4445   5.4445   7.9585   9.0766   9.2312   9.2312
     9.6860   9.8236   9.8238  11.7328  12.1011  12.1011  15.9644  15.9647
    16.0513  16.6650  16.6652  16.8430

     occupation numbers 
     1.0000   1.0000   1.0000   1.0000   1.0000   1.0000   1.0000   1.0000
     1.0000   1.0000   1.0000   1.0000   1.0000   1.0000   1.0000   1.0000
     1.0000   1.0000   1.0000   1.0000   1.0000   1.0000   1.0000   1.0000
     1.0000   1.0000   1.0000   1.0000   1.0000   1.0000   1.0000   1.0000
     1.0000   1.0000   1.0000   1.0000   0.0000   0.0000   0.0000   0.0000
     0.0000   0.0000   0.0000   0.0000   0.0000   0.0000   0.0000   0.0000
     0.0000   0.0000   0.0000   0.0000

          k = 0.0000 0.0000 0.2500 (  5342 PWs)   bands (ev):

    -7.3051  -6.4680  -6.2613  -6.2613  -0.7006  -0.6855  -0.6292  -0.6292
    -0.6125  -0.6125  -0.3977  -0.3977  -0.3689  -0.3689  -0.3167  -0.3166
    -0.2011  -0.1749  -0.1498  -0.1407  -0.1403  -0.1243   0.1092   0.1092
     1.0702   1.0702   1.7365   3.1376   3.1376   3.1495   3.1495   3.6684
     3.6684   4.4872   5.1581   5.1581   8.7396   9.2958   9.8548   9.8548
     9.8622  10.3704  10.3705  11.2402  12.5499  12.5499  15.1330  15.1334
    15.3389  15.3645  15.3646  15.9070

     occupation numbers 
     1.0000   1.0000   1.0000   1.0000   1.0000   1.0000   1.0000   1.0000
     1.0000   1.0000   1.0000   1.0000   1.0000   1.0000   1.0000   1.0000
     1.0000   1.0000   1.0000   1.0000   1.0000   1.0000   1.0000   1.0000
     1.0000   1.0000   1.0000   1.0000   1.0000   1.0000   1.0000   1.0000
     1.0000   1.0000   1.0000   1.0000   0.0000   0.0000   0.0000   0.0000
     0.0000   0.0000   0.0000   0.0000   0.0000   0.0000   0.0000   0.0000
     0.0000   0.0000   0.0000   0.0000

          k = 0.0000 0.0000 0.3750 (  5346 PWs)   bands (ev):

    -7.1306  -6.6796  -6.2593  -6.2593  -0.7106  -0.7010  -0.5838  -0.5838
    -0.5581  -0.5581  -0.4597  -0.4597  -0.3873  -0.3873  -0.2841  -0.2838
    -0.2152  -0.2079  -0.1778  -0.1775  -0.1633  -0.1358   0.1693   0.1693
     1.0613   1.0614   2.3354   2.9649   2.9649   2.9839   2.9840   3.7382
     3.9753   3.9753   4.7705   4.7705   9.5057   9.6459  10.0436  10.6612
    10.6993  10.6993  11.0722  11.0722  13.2125  13.2125  14.0654  14.0654
    14.2415  14.2419  14.6293  14.6941

     occupation numbers 
     1.0000   1.0000   1.0000   1.0000   1.0000   1.0000   1.0000   1.0000
     1.0000   1.0000   1.0000   1.0000   1.0000   1.0000   1.0000   1.0000
     1.0000   1.0000   1.0000   1.0000   1.0000   1.0000   1.0000   1.0000
     1.0000   1.0000   1.0000   1.0000   1.0000   1.0000   1.0000   1.0000
     1.0000   1.0000   1.0000   1.0000   0.0000   0.0000   0.0000   0.0000
     0.0000   0.0000   0.0000   0.0000   0.0000   0.0000   0.0000   0.0000
     0.0000   0.0000   0.0000   0.0000

          k = 0.0000 0.0000-0.5000 (  5358 PWs)   bands (ev):

    -6.9127  -6.9127  -6.2585  -6.2585  -0.7112  -0.7112  -0.5358  -0.5358
    -0.5253  -0.5253  -0.5250  -0.5250  -0.3941  -0.3941  -0.2419  -0.2413
    -0.2230  -0.2225  -0.2208  -0.2208  -0.1496  -0.1495   0.1943   0.1943
     1.0571   1.0572   2.8956   2.8956   2.9176   2.9176   3.0124   3.0124
     4.3569   4.3569   4.3570   4.3570   9.9801   9.9802  10.1191  10.1191
    11.2522  11.2522  11.4795  11.4796  13.3578  13.3578  14.0228  14.0231
    14.0231  14.0232  14.3285  14.3290

     occupation numbers 
     1.0000   1.0000   1.0000   1.0000   1.0000   1.0000   1.0000   1.0000
     1.0000   1.0000   1.0000   1.0000   1.0000   1.0000   1.0000   1.0000
     1.0000   1.0000   1.0000   1.0000   1.0000   1.0000   1.0000   1.0000
     1.0000   1.0000   1.0000   1.0000   1.0000   1.0000   1.0000   1.0000
     1.0000   1.0000   1.0000   1.0000   0.0000   0.0000   0.0000   0.0000
     0.0000   0.0000   0.0000   0.0000   0.0000   0.0000   0.0000   0.0000
     0.0000   0.0000   0.0000   0.0000

          k = 0.0000 0.1250 0.1250 (  5351 PWs)   bands (ev):

    -7.3794  -6.3153  -6.3153  -6.2643  -0.6691  -0.6686  -0.6686  -0.6554
    -0.6489  -0.6477  -0.3650  -0.3648  -0.3513  -0.3470  -0.3470  -0.3311
    -0.1902  -0.1832  -0.1253  -0.1220  -0.1215  -0.0223  -0.0222   0.0718
     1.0717   1.2590   1.2591   3.0366   3.3679   3.3679   3.4263   3.4263
     3.5068   4.7955   5.3333   5.5064   8.2167   9.3032   9.3080   9.3080
     9.8824   9.8825  10.1282  11.7653  12.0550  12.2406  15.4451  15.4453
    15.7234  16.4846  16.6545  16.6548

     occupation numbers 
     1.0000   1.0000   1.0000   1.0000   1.0000   1.0000   1.0000   1.0000
     1.0000   1.0000   1.0000   1.0000   1.0000   1.0000   1.0000   1.0000
     1.0000   1.0000   1.0000   1.0000   1.0000   1.0000   1.0000   1.0000
     1.0000   1.0000   1.0000   1.0000   1.0000   1.0000   1.0000   1.0000
     1.0000   1.0000   1.0000   1.0000   0.0000   0.0000   0.0000   0.0000
     0.0000   0.0000   0.0000   0.0000   0.0000   0.0000   0.0000   0.0000
     0.0000   0.0000   0.0000   0.0000

          k = 0.0000 0.1250 0.2500 (  5356 PWs)   bands (ev):

    -7.2701  -6.4589  -6.3067  -6.2678  -0.6781  -0.6769  -0.6295  -0.6231
    -0.6134  -0.6042  -0.4109  -0.3911  -0.3910  -0.3742  -0.3281  -0.3107
    -0.1996  -0.1762  -0.1429  -0.1391  -0.1345  -0.1252   0.0361   0.1241
     1.0558   1.2121   1.6854   2.7715   3.1239   3.3409   3.5300   3.5519
     3.6731   4.1579   5.0387   5.3147   8.8389   9.5317   9.6753   9.9358
    10.0345  10.4073  10.7941  11.3939  12.4475  12.6076  14.3465  14.5922
    15.0682  15.4102  15.6966  15.9189

     occupation numbers 
     1.0000   1.0000   1.0000   1.0000   1.0000   1.0000   1.0000   1.0000
     1.0000   1.0000   1.0000   1.0000   1.0000   1.0000   1.0000   1.0000
     1.0000   1.0000   1.0000   1.0000   1.0000   1.0000   1.0000   1.0000
     1.0000   1.0000   1.0000   1.0000   1.0000   1.0000   1.0000   1.0000
     1.0000   1.0000   1.0000   1.0000   0.0000   0.0000   0.0000   0.0000
     0.0000   0.0000   0.0000   0.0000   0.0000   0.0000   0.0000   0.0000
     0.0000   0.0000   0.0000   0.0000

          k = 0.0000 0.1250 0.3750 (  5356 PWs)   bands (ev):

    -7.1001  -6.6627  -6.2952  -6.2742  -0.6893  -0.6882  -0.5841  -0.5813
    -0.5582  -0.5559  -0.4694  -0.4542  -0.4133  -0.3997  -0.2885  -0.2700
    -0.2121  -0.1979  -0.1776  -0.1712  -0.1641  -0.1369   0.1041   0.1641
     1.0458   1.1404   2.2295   2.6340   2.8564   3.2956   3.4397   3.4877
     3.8498   4.0373   4.6442   4.9300   9.5459   9.8835  10.1725  10.3593
    10.7790  10.8620  11.0663  11.4768  13.0356  13.1416  13.2842  13.8353
    13.9703  14.5216  14.9193  14.9783

     occupation numbers 
     1.0000   1.0000   1.0000   1.0000   1.0000   1.0000   1.0000   1.0000
     1.0000   1.0000   1.0000   1.0000   1.0000   1.0000   1.0000   1.0000
     1.0000   1.0000   1.0000   1.0000   1.0000   1.0000   1.0000   1.0000
     1.0000   1.0000   1.0000   1.0000   1.0000   1.0000   1.0000   1.0000
     1.0000   1.0000   1.0000   1.0000   0.0000   0.0000   0.0000   0.0000
     0.0000   0.0000   0.0000   0.0000   0.0000   0.0000   0.0000   0.0000
     0.0000   0.0000   0.0000   0.0000

          k = 0.0000 0.1250-0.5000 (  5360 PWs)   bands (ev):

    -6.8884  -6.8884  -6.2836  -6.2836  -0.6938  -0.6938  -0.5351  -0.5350
    -0.5294  -0.5292  -0.5222  -0.5221  -0.4168  -0.4168  -0.2311  -0.2309
    -0.2181  -0.2178  -0.2174  -0.2169  -0.1502  -0.1501   0.1564   0.1564
     1.0730   1.0731   2.6698   2.6699   2.8379   2.8379   3.3356   3.3356
     4.2282   4.2283   4.4762   4.4762  10.0552  10.0552  10.3394  10.3395
    11.0614  11.0615  11.5958  11.5958  13.0244  13.0245  13.3756  13.3757
    13.9754  13.9754  14.3901  14.3903

     occupation numbers 
     1.0000   1.0000   1.0000   1.0000   1.0000   1.0000   1.0000   1.0000
     1.0000   1.0000   1.0000   1.0000   1.0000   1.0000   1.0000   1.0000
     1.0000   1.0000   1.0000   1.0000   1.0000   1.0000   1.0000   1.0000
     1.0000   1.0000   1.0000   1.0000   1.0000   1.0000   1.0000   1.0000
     1.0000   1.0000   1.0000   1.0000   0.0000   0.0000   0.0000   0.0000
     0.0000   0.0000   0.0000   0.0000   0.0000   0.0000   0.0000   0.0000
     0.0000   0.0000   0.0000   0.0000

          k = 0.0000 0.2500 0.2500 (  5361 PWs)   bands (ev):

    -7.1689  -6.4332  -6.4332  -6.2868  -0.6577  -0.6219  -0.6183  -0.6183
    -0.6048  -0.5831  -0.4398  -0.4396  -0.3944  -0.3672  -0.3672  -0.2848
    -0.2003  -0.1742  -0.1519  -0.1411  -0.1408  -0.0869  -0.0868   0.1443
     1.0272   1.5441   1.5441   2.5374   3.2655   3.2655   3.5896   3.7020
     3.7020   3.8024   4.7276   5.3556   9.1628   9.6933  10.1697  10.1697
    10.4878  10.4878  11.4589  11.6357  12.3739  12.7368  13.5156  13.5158
    14.8563  15.2402  15.9304  15.9305

     occupation numbers 
     1.0000   1.0000   1.0000   1.0000   1.0000   1.0000   1.0000   1.0000
     1.0000   1.0000   1.0000   1.0000   1.0000   1.0000   1.0000   1.0000
     1.0000   1.0000   1.0000   1.0000   1.0000   1.0000   1.0000   1.0000
     1.0000   1.0000   1.0000   1.0000   1.0000   1.0000   1.0000   1.0000
     1.0000   1.0000   1.0000   1.0000   0.0000   0.0000   0.0000   0.0000
     0.0000   0.0000   0.0000   0.0000   0.0000   0.0000   0.0000   0.0000
     0.0000   0.0000   0.0000   0.0000

          k = 0.0000 0.2500 0.3750 (  5358 PWs)   bands (ev):

    -7.0122  -6.6150  -6.3964  -6.3170  -0.6489  -0.6294  -0.5830  -0.5734
    -0.5571  -0.5522  -0.4918  -0.4653  -0.4341  -0.4245  -0.3157  -0.2456
    -0.2069  -0.1794  -0.1756  -0.1632  -0.1618  -0.1360  -0.0299   0.1175
     1.0453   1.3503   1.9706   2.5032   2.9316   3.0071   3.5375   3.7710
     3.8981   4.1752   4.3207   5.1135   9.6764  10.0899  10.4805  10.5336
    10.9282  11.0779  11.3951  11.9266  12.6400  12.7754  12.9252  12.9474
    13.9409  14.8390  14.8902  15.6102

     occupation numbers 
     1.0000   1.0000   1.0000   1.0000   1.0000   1.0000   1.0000   1.0000
     1.0000   1.0000   1.0000   1.0000   1.0000   1.0000   1.0000   1.0000
     1.0000   1.0000   1.0000   1.0000   1.0000   1.0000   1.0000   1.0000
     1.0000   1.0000   1.0000   1.0000   1.0000   1.0000   1.0000   1.0000
     1.0000   1.0000   1.0000   1.0000   0.0000   0.0000   0.0000   0.0000
     0.0000   0.0000   0.0000   0.0000   0.0000   0.0000   0.0000   0.0000
     0.0000   0.0000   0.0000   0.0000

          k = 0.0000 0.2500-0.5000 (  5370 PWs)   bands (ev):

    -6.8188  -6.8188  -6.3553  -6.3553  -0.6416  -0.6416  -0.5385  -0.5384
    -0.5354  -0.5354  -0.5119  -0.5118  -0.4566  -0.4566  -0.2456  -0.2455
    -0.2067  -0.2062  -0.1904  -0.1899  -0.1493  -0.1491   0.0424   0.0424
     1.1628   1.1628   2.4617   2.4617   2.6529   2.6530   3.8584   3.8584
     3.9037   3.9038   4.6796   4.6796  10.2008  10.2008  10.7217  10.7218
    10.9599  10.9599  11.8012  11.8012  12.7469  12.7471  12.8377  12.8379
    13.8172  13.8173  15.0966  15.0969

     occupation numbers 
     1.0000   1.0000   1.0000   1.0000   1.0000   1.0000   1.0000   1.0000
     1.0000   1.0000   1.0000   1.0000   1.0000   1.0000   1.0000   1.0000
     1.0000   1.0000   1.0000   1.0000   1.0000   1.0000   1.0000   1.0000
     1.0000   1.0000   1.0000   1.0000   1.0000   1.0000   1.0000   1.0000
     1.0000   1.0000   1.0000   1.0000   0.0000   0.0000   0.0000   0.0000
     0.0000   0.0000   0.0000   0.0000   0.0000   0.0000   0.0000   0.0000
     0.0000   0.0000   0.0000   0.0000

          k = 0.0000 0.3750 0.3750 (  5350 PWs)   bands (ev):

    -6.8775  -6.5444  -6.5444  -6.3828  -0.5873  -0.5732  -0.5583  -0.5536
    -0.5536  -0.5518  -0.5138  -0.5136  -0.4534  -0.3824  -0.3823  -0.2321
    -0.2060  -0.1799  -0.1764  -0.1764  -0.1545  -0.1199  -0.1195   0.0060
     1.1475   1.6581   1.6582   2.5059   2.5814   3.1607   3.1607   3.9092
     4.2218   4.3051   4.3051   5.0759   9.9241  10.1246  10.6905  10.6906
    11.4217  11.4217  11.9570  12.1419  12.3604  12.3605  12.5967  12.8325
    13.9037  14.1932  14.6275  14.6275

     occupation numbers 
     1.0000   1.0000   1.0000   1.0000   1.0000   1.0000   1.0000   1.0000
     1.0000   1.0000   1.0000   1.0000   1.0000   1.0000   1.0000   1.0000
     1.0000   1.0000   1.0000   1.0000   1.0000   1.0000   1.0000   1.0000
     1.0000   1.0000   1.0000   1.0000   1.0000   1.0000   1.0000   1.0000
     1.0000   1.0000   1.0000   1.0000   0.0000   0.0000   0.0000   0.0000
     0.0000   0.0000   0.0000   0.0000   0.0000   0.0000   0.0000   0.0000
     0.0000   0.0000   0.0000   0.0000

          k = 0.0000 0.3750-0.5000 (  5350 PWs)   bands (ev):

    -6.7137  -6.7137  -6.4626  -6.4626  -0.5649  -0.5649  -0.5459  -0.5457
    -0.5406  -0.5405  -0.4887  -0.4886  -0.4828  -0.4827  -0.2846  -0.2846
    -0.2019  -0.2015  -0.1853  -0.1848  -0.1410  -0.1408  -0.0844  -0.0843
     1.3658   1.3659   2.0479   2.0480   2.8191   2.8192   3.5017   3.5018
     4.3468   4.3468   4.7801   4.7801  10.2899  10.2899  10.4405  10.4406
    11.8381  11.8381  12.0332  12.0332  12.3995  12.3997  12.8427  12.8428
    13.5456  13.5456  14.3234  14.3234

     occupation numbers 
     1.0000   1.0000   1.0000   1.0000   1.0000   1.0000   1.0000   1.0000
     1.0000   1.0000   1.0000   1.0000   1.0000   1.0000   1.0000   1.0000
     1.0000   1.0000   1.0000   1.0000   1.0000   1.0000   1.0000   1.0000
     1.0000   1.0000   1.0000   1.0000   1.0000   1.0000   1.0000   1.0000
     1.0000   1.0000   1.0000   1.0000   0.0000   0.0000   0.0000   0.0000
     0.0000   0.0000   0.0000   0.0000   0.0000   0.0000   0.0000   0.0000
     0.0000   0.0000   0.0000   0.0000

          k = 0.0000-0.5000-0.5000 (  5360 PWs)   bands (ev):

    -6.5886  -6.5886  -6.5886  -6.5886  -0.5467  -0.5465  -0.5464  -0.5464
    -0.5156  -0.5154  -0.5153  -0.5153  -0.3903  -0.3902  -0.3900  -0.3900
    -0.2001  -0.1995  -0.1995  -0.1992  -0.1271  -0.1266  -0.1264  -0.1264
     1.6700   1.6700   1.6701   1.6701   3.1186   3.1187   3.1187   3.1187
     4.6769   4.6769   4.6769   4.6769  10.3177  10.3177  10.3177  10.3177
    12.1933  12.1934  12.1934  12.1934  12.7880  12.7880  12.7880  12.7884
    13.4108  13.4108  13.4108  13.4108

     occupation numbers 
     1.0000   1.0000   1.0000   1.0000   1.0000   1.0000   1.0000   1.0000
     1.0000   1.0000   1.0000   1.0000   1.0000   1.0000   1.0000   1.0000
     1.0000   1.0000   1.0000   1.0000   1.0000   1.0000   1.0000   1.0000
     1.0000   1.0000   1.0000   1.0000   1.0000   1.0000   1.0000   1.0000
     1.0000   1.0000   1.0000   1.0000   0.0000   0.0000   0.0000   0.0000
     0.0000   0.0000   0.0000   0.0000   0.0000   0.0000   0.0000   0.0000
     0.0000   0.0000   0.0000   0.0000

          k = 0.1250 0.1250 0.1250 (  5374 PWs)   bands (ev):

    -7.3427  -6.3140  -6.3140  -6.3140  -0.6652  -0.6502  -0.6502  -0.6502
    -0.6470  -0.6470  -0.3680  -0.3680  -0.3679  -0.3485  -0.3484  -0.3484
    -0.1870  -0.1870  -0.1263  -0.1263  -0.1256   0.0004   0.0004   0.0004
     1.2351   1.2352   1.2352   3.1353   3.1353   3.1353   3.5717   3.5717
     3.5717   4.4500   5.4096   5.4096   8.3841   9.3788   9.3788   9.3789
    10.1818  10.1818  10.1819  11.8362  12.1861  12.1861  15.2162  15.2162
    15.2165  16.1027  16.1027  16.1027

     occupation numbers 
     1.0000   1.0000   1.0000   1.0000   1.0000   1.0000   1.0000   1.0000
     1.0000   1.0000   1.0000   1.0000   1.0000   1.0000   1.0000   1.0000
     1.0000   1.0000   1.0000   1.0000   1.0000   1.0000   1.0000   1.0000
     1.0000   1.0000   1.0000   1.0000   1.0000   1.0000   1.0000   1.0000
     1.0000   1.0000   1.0000   1.0000   0.0000   0.0000   0.0000   0.0000
     0.0000   0.0000   0.0000   0.0000   0.0000   0.0000   0.0000   0.0000
     0.0000   0.0000   0.0000   0.0000

          k = 0.1250 0.1250 0.2500 (  5364 PWs)   bands (ev):

    -7.2362  -6.4514  -6.3108  -6.3108  -0.6682  -0.6584  -0.6247  -0.6220
    -0.6046  -0.6046  -0.4118  -0.3941  -0.3928  -0.3928  -0.3250  -0.3248
    -0.1970  -0.1781  -0.1411  -0.1407  -0.1298  -0.1152   0.0549   0.0549
     1.1649   1.1650   1.6157   2.8987   2.8987   3.4176   3.6031   3.6031
     3.7590   3.8512   5.1490   5.2625   8.8625   9.5918   9.7448   9.7449
    10.3235  10.8318  10.8318  11.5788  12.4835  12.5532  14.3515  14.3696
    14.3698  15.3416  15.6539  15.6540

     occupation numbers 
     1.0000   1.0000   1.0000   1.0000   1.0000   1.0000   1.0000   1.0000
     1.0000   1.0000   1.0000   1.0000   1.0000   1.0000   1.0000   1.0000
     1.0000   1.0000   1.0000   1.0000   1.0000   1.0000   1.0000   1.0000
     1.0000   1.0000   1.0000   1.0000   1.0000   1.0000   1.0000   1.0000
     1.0000   1.0000   1.0000   1.0000   0.0000   0.0000   0.0000   0.0000
     0.0000   0.0000   0.0000   0.0000   0.0000   0.0000   0.0000   0.0000
     0.0000   0.0000   0.0000   0.0000

          k = 0.1250 0.1250 0.3750 (  5354 PWs)   bands (ev):

    -7.0708  -6.6474  -6.3076  -6.3076  -0.6753  -0.6699  -0.5819  -0.5808
    -0.5567  -0.5566  -0.4697  -0.4562  -0.4203  -0.4202  -0.2784  -0.2783
    -0.2084  -0.1873  -0.1707  -0.1704  -0.1652  -0.1384   0.1129   0.1130
     1.0733   1.0734   2.0974   2.7582   2.7582   3.2299   3.5495   3.5495
     3.8434   4.0476   4.7914   4.8612   9.4835   9.8731  10.4124  10.4124
    10.4864  11.1158  11.4597  11.4597  12.9267  13.0984  13.4074  13.4076
    13.6056  14.5316  15.0897  15.0901

     occupation numbers 
     1.0000   1.0000   1.0000   1.0000   1.0000   1.0000   1.0000   1.0000
     1.0000   1.0000   1.0000   1.0000   1.0000   1.0000   1.0000   1.0000
     1.0000   1.0000   1.0000   1.0000   1.0000   1.0000   1.0000   1.0000
     1.0000   1.0000   1.0000   1.0000   1.0000   1.0000   1.0000   1.0000
     1.0000   1.0000   1.0000   1.0000   0.0000   0.0000   0.0000   0.0000
     0.0000   0.0000   0.0000   0.0000   0.0000   0.0000   0.0000   0.0000
     0.0000   0.0000   0.0000   0.0000

          k = 0.1250 0.1250-0.5000 (  5342 PWs)   bands (ev):

    -6.8654  -6.8654  -6.3063  -6.3063  -0.6770  -0.6770  -0.5351  -0.5350
    -0.5295  -0.5293  -0.5224  -0.5221  -0.4336  -0.4335  -0.2303  -0.2303
    -0.2115  -0.2109  -0.2093  -0.2088  -0.1511  -0.1509   0.1395   0.1396
     1.0277   1.0277   2.6397   2.6397   2.7167   2.7167   3.5146   3.5146
     4.3513   4.3513   4.4057   4.4058   9.9304   9.9304  10.6983  10.6983
    10.9840  10.9840  11.5134  11.5135  13.0456  13.0457  13.1971  13.1972
    13.7705  13.7705  14.7061  14.7064

     occupation numbers 
     1.0000   1.0000   1.0000   1.0000   1.0000   1.0000   1.0000   1.0000
     1.0000   1.0000   1.0000   1.0000   1.0000   1.0000   1.0000   1.0000
     1.0000   1.0000   1.0000   1.0000   1.0000   1.0000   1.0000   1.0000
     1.0000   1.0000   1.0000   1.0000   1.0000   1.0000   1.0000   1.0000
     1.0000   1.0000   1.0000   1.0000   0.0000   0.0000   0.0000   0.0000
     0.0000   0.0000   0.0000   0.0000   0.0000   0.0000   0.0000   0.0000
     0.0000   0.0000   0.0000   0.0000

          k = 0.1250 0.2500 0.2500 (  5353 PWs)   bands (ev):

    -7.1380  -6.4309  -6.4309  -6.3230  -0.6473  -0.6171  -0.6081  -0.6081
    -0.6047  -0.5827  -0.4372  -0.4370  -0.4098  -0.3663  -0.3663  -0.2990
    -0.1958  -0.1770  -0.1486  -0.1403  -0.1399  -0.0712  -0.0711   0.0945
     1.0472   1.4303   1.4303   2.7364   3.2333   3.2333   3.2997   3.8219
     3.8219   3.8552   4.9231   5.2875   9.0457   9.7496   9.9243   9.9244
    10.9302  10.9302  11.4657  11.9000  12.4135  12.6915  13.5605  13.5606
    14.3263  14.9360  15.1120  15.1120

     occupation numbers 
     1.0000   1.0000   1.0000   1.0000   1.0000   1.0000   1.0000   1.0000
     1.0000   1.0000   1.0000   1.0000   1.0000   1.0000   1.0000   1.0000
     1.0000   1.0000   1.0000   1.0000   1.0000   1.0000   1.0000   1.0000
     1.0000   1.0000   1.0000   1.0000   1.0000   1.0000   1.0000   1.0000
     1.0000   1.0000   1.0000   1.0000   0.0000   0.0000   0.0000   0.0000
     0.0000   0.0000   0.0000   0.0000   0.0000   0.0000   0.0000   0.0000
     0.0000   0.0000   0.0000   0.0000

          k = 0.1250 0.2500 0.3750 (  5353 PWs)   bands (ev):

    -6.9863  -6.6043  -6.4020  -6.3436  -0.6364  -0.6173  -0.5807  -0.5719
    -0.5566  -0.5547  -0.4886  -0.4644  -0.4389  -0.4321  -0.3067  -0.2546
    -0.2018  -0.1689  -0.1675  -0.1651  -0.1600  -0.1378  -0.0115   0.1080
     0.9567   1.1978   1.7907   2.7390   2.7394   3.0440   3.6690   3.8692
     3.9519   4.1809   4.5472   5.0556   9.4577  10.0750  10.1178  10.4991
    11.0685  11.4193  11.6949  11.8310  12.7889  12.8886  12.9126  12.9996
    13.7028  14.3318  14.8048  15.0558

     occupation numbers 
     1.0000   1.0000   1.0000   1.0000   1.0000   1.0000   1.0000   1.0000
     1.0000   1.0000   1.0000   1.0000   1.0000   1.0000   1.0000   1.0000
     1.0000   1.0000   1.0000   1.0000   1.0000   1.0000   1.0000   1.0000
     1.0000   1.0000   1.0000   1.0000   1.0000   1.0000   1.0000   1.0000
     1.0000   1.0000   1.0000   1.0000   0.0000   0.0000   0.0000   0.0000
     0.0000   0.0000   0.0000   0.0000   0.0000   0.0000   0.0000   0.0000
     0.0000   0.0000   0.0000   0.0000

          k = 0.1250 0.2500-0.5000 (  5368 PWs)   bands (ev):

    -6.7998  -6.7998  -6.3711  -6.3711  -0.6285  -0.6284  -0.5374  -0.5372
    -0.5370  -0.5369  -0.5089  -0.5087  -0.4661  -0.4660  -0.2419  -0.2419
    -0.1996  -0.1991  -0.1858  -0.1853  -0.1509  -0.1507   0.0592   0.0593
     1.0101   1.0102   2.2298   2.2298   2.8625   2.8626   3.9286   3.9286
     4.1180   4.1180   4.6331   4.6331   9.9093   9.9093  10.6606  10.6606
    11.3254  11.3254  11.5808  11.5808  12.8253  12.8255  13.0955  13.0956
    13.5764  13.5764  14.9552  14.9554

     occupation numbers 
     1.0000   1.0000   1.0000   1.0000   1.0000   1.0000   1.0000   1.0000
     1.0000   1.0000   1.0000   1.0000   1.0000   1.0000   1.0000   1.0000
     1.0000   1.0000   1.0000   1.0000   1.0000   1.0000   1.0000   1.0000
     1.0000   1.0000   1.0000   1.0000   1.0000   1.0000   1.0000   1.0000
     1.0000   1.0000   1.0000   1.0000   0.0000   0.0000   0.0000   0.0000
     0.0000   0.0000   0.0000   0.0000   0.0000   0.0000   0.0000   0.0000
     0.0000   0.0000   0.0000   0.0000

          k = 0.1250 0.3750 0.3750 (  5371 PWs)   bands (ev):

    -6.8574  -6.5411  -6.5411  -6.3997  -0.5799  -0.5738  -0.5578  -0.5578
    -0.5522  -0.5472  -0.5085  -0.5084  -0.4652  -0.3675  -0.3674  -0.2342
    -0.2000  -0.1737  -0.1683  -0.1682  -0.1564  -0.1152  -0.1149   0.0301
     0.9634   1.4442   1.4443   2.2393   2.8684   3.3910   3.3910   4.1756
     4.2549   4.3234   4.3235   5.0453   9.6254  10.1016  10.3580  10.3580
    11.5494  11.5495  11.9660  12.2244  12.6948  12.6949  12.7394  12.7432
    13.9332  14.0045  14.2413  14.2413

     occupation numbers 
     1.0000   1.0000   1.0000   1.0000   1.0000   1.0000   1.0000   1.0000
     1.0000   1.0000   1.0000   1.0000   1.0000   1.0000   1.0000   1.0000
     1.0000   1.0000   1.0000   1.0000   1.0000   1.0000   1.0000   1.0000
     1.0000   1.0000   1.0000   1.0000   1.0000   1.0000   1.0000   1.0000
     1.0000   1.0000   1.0000   1.0000   0.0000   0.0000   0.0000   0.0000
     0.0000   0.0000   0.0000   0.0000   0.0000   0.0000   0.0000   0.0000
     0.0000   0.0000   0.0000   0.0000

          k = 0.1250 0.3750-0.5000 (  5358 PWs)   bands (ev):

    -6.7014  -6.7014  -6.4689  -6.4689  -0.5671  -0.5670  -0.5433  -0.5432
    -0.5425  -0.5424  -0.4956  -0.4955  -0.4647  -0.4646  -0.2692  -0.2691
    -0.1945  -0.1941  -0.1795  -0.1790  -0.1424  -0.1422  -0.0676  -0.0675
     1.1461   1.1461   1.7980   1.7980   3.1028   3.1028   3.7748   3.7748
     4.3722   4.3722   4.7664   4.7665   9.9764   9.9765  10.3081  10.3081
    11.8128  11.8129  11.9355  11.9355  12.6974  12.6975  13.1548  13.1549
    13.3857  13.3857  14.1364  14.1364

     occupation numbers 
     1.0000   1.0000   1.0000   1.0000   1.0000   1.0000   1.0000   1.0000
     1.0000   1.0000   1.0000   1.0000   1.0000   1.0000   1.0000   1.0000
     1.0000   1.0000   1.0000   1.0000   1.0000   1.0000   1.0000   1.0000
     1.0000   1.0000   1.0000   1.0000   1.0000   1.0000   1.0000   1.0000
     1.0000   1.0000   1.0000   1.0000   0.0000   0.0000   0.0000   0.0000
     0.0000   0.0000   0.0000   0.0000   0.0000   0.0000   0.0000   0.0000
     0.0000   0.0000   0.0000   0.0000

          k = 0.1250-0.5000-0.5000 (  5360 PWs)   bands (ev):

    -6.5850  -6.5850  -6.5850  -6.5850  -0.5492  -0.5489  -0.5488  -0.5488
    -0.5222  -0.5219  -0.5219  -0.5219  -0.3618  -0.3616  -0.3614  -0.3614
    -0.1931  -0.1925  -0.1925  -0.1923  -0.1253  -0.1249  -0.1247  -0.1247
     1.4224   1.4225   1.4225   1.4225   3.4182   3.4183   3.4183   3.4183
     4.6821   4.6821   4.6821   4.6821  10.0868  10.0868  10.0868  10.0868
    12.0352  12.0352  12.0353  12.0353  13.2099  13.2099  13.2099  13.2099
    13.2627  13.2627  13.2627  13.2629

     occupation numbers 
     1.0000   1.0000   1.0000   1.0000   1.0000   1.0000   1.0000   1.0000
     1.0000   1.0000   1.0000   1.0000   1.0000   1.0000   1.0000   1.0000
     1.0000   1.0000   1.0000   1.0000   1.0000   1.0000   1.0000   1.0000
     1.0000   1.0000   1.0000   1.0000   1.0000   1.0000   1.0000   1.0000
     1.0000   1.0000   1.0000   1.0000   0.0000   0.0000   0.0000   0.0000
     0.0000   0.0000   0.0000   0.0000   0.0000   0.0000   0.0000   0.0000
     0.0000   0.0000   0.0000   0.0000

          k = 0.2500 0.2500 0.2500 (  5365 PWs)   bands (ev):

    -7.0488  -6.4252  -6.4252  -6.4252  -0.6171  -0.6022  -0.6022  -0.5837
    -0.5837  -0.5836  -0.4481  -0.4481  -0.4479  -0.3364  -0.3363  -0.3363
    -0.1840  -0.1840  -0.1442  -0.1442  -0.1436  -0.0266  -0.0265  -0.0265
     1.1666   1.1666   1.1666   2.7694   3.2247   3.2247   3.2248   4.0074
     4.0074   4.0075   5.0988   5.0988   8.9512   9.8702   9.8702   9.8703
    11.4772  11.4772  11.4772  12.4259  12.5488  12.5488  13.6344  13.6344
    13.6347  14.3295  14.3295  14.3296

     occupation numbers 
     1.0000   1.0000   1.0000   1.0000   1.0000   1.0000   1.0000   1.0000
     1.0000   1.0000   1.0000   1.0000   1.0000   1.0000   1.0000   1.0000
     1.0000   1.0000   1.0000   1.0000   1.0000   1.0000   1.0000   1.0000
     1.0000   1.0000   1.0000   1.0000   1.0000   1.0000   1.0000   1.0000
     1.0000   1.0000   1.0000   1.0000   0.0000   0.0000   0.0000   0.0000
     0.0000   0.0000   0.0000   0.0000   0.0000   0.0000   0.0000   0.0000
     0.0000   0.0000   0.0000   0.0000

          k = 0.2500 0.2500 0.3750 (  5357 PWs)   bands (ev):

    -6.9123  -6.5748  -6.4194  -6.4194  -0.6033  -0.5888  -0.5764  -0.5573
    -0.5570  -0.5570  -0.4950  -0.4730  -0.4729  -0.3969  -0.2752  -0.2751
    -0.1903  -0.1684  -0.1579  -0.1575  -0.1450  -0.1362   0.0348   0.0349
     0.9005   0.9005   1.4173   2.2415   3.2542   3.2542   3.8388   4.1129
     4.1130   4.2412   4.8293   4.9278   9.1576   9.8713  10.1110  10.1110
    11.5439  11.6576  11.6576  12.2033  12.8062  12.9108  13.2306  13.4225
    13.4226  13.7173  14.3102  14.3102

     occupation numbers 
     1.0000   1.0000   1.0000   1.0000   1.0000   1.0000   1.0000   1.0000
     1.0000   1.0000   1.0000   1.0000   1.0000   1.0000   1.0000   1.0000
     1.0000   1.0000   1.0000   1.0000   1.0000   1.0000   1.0000   1.0000
     1.0000   1.0000   1.0000   1.0000   1.0000   1.0000   1.0000   1.0000
     1.0000   1.0000   1.0000   1.0000   0.0000   0.0000   0.0000   0.0000
     0.0000   0.0000   0.0000   0.0000   0.0000   0.0000   0.0000   0.0000
     0.0000   0.0000   0.0000   0.0000

          k = 0.2500 0.2500-0.5000 (  5326 PWs)   bands (ev):

    -6.7462  -6.7462  -6.4170  -6.4170  -0.5967  -0.5966  -0.5424  -0.5423
    -0.5400  -0.5398  -0.4881  -0.4880  -0.4800  -0.4798  -0.2353  -0.2352
    -0.1838  -0.1833  -0.1738  -0.1732  -0.1540  -0.1538   0.0720   0.0721
     0.7808   0.7808   1.7820   1.7821   3.2730   3.2730   4.1395   4.1396
     4.4520   4.4521   4.5279   4.5279   9.5701   9.5702  10.3387  10.3387
    11.5234  11.5235  11.8144  11.8144  13.0923  13.0924  13.1983  13.1983
    13.3265  13.3266  14.5205  14.5206

     occupation numbers 
     1.0000   1.0000   1.0000   1.0000   1.0000   1.0000   1.0000   1.0000
     1.0000   1.0000   1.0000   1.0000   1.0000   1.0000   1.0000   1.0000
     1.0000   1.0000   1.0000   1.0000   1.0000   1.0000   1.0000   1.0000
     1.0000   1.0000   1.0000   1.0000   1.0000   1.0000   1.0000   1.0000
     1.0000   1.0000   1.0000   1.0000   0.0000   0.0000   0.0000   0.0000
     0.0000   0.0000   0.0000   0.0000   0.0000   0.0000   0.0000   0.0000
     0.0000   0.0000   0.0000   0.0000

          k = 0.2500 0.3750 0.3750 (  5380 PWs)   bands (ev):

    -6.8004  -6.5332  -6.5332  -6.4488  -0.5732  -0.5719  -0.5607  -0.5606
    -0.5539  -0.5114  -0.5114  -0.4981  -0.4935  -0.3121  -0.3120  -0.2352
    -0.1850  -0.1619  -0.1615  -0.1555  -0.1552  -0.0922  -0.0920   0.0592
     0.6968   1.0409   1.0410   1.7513   3.4648   3.8110   3.8111   4.3494
     4.3815   4.3815   4.6103   4.9568   9.1336   9.8587   9.8587   9.9238
    11.7338  11.7338  11.7765  12.5071  12.5882  13.1942  13.1942  13.2337
    13.4356  13.8327  13.8328  14.1460

     occupation numbers 
     1.0000   1.0000   1.0000   1.0000   1.0000   1.0000   1.0000   1.0000
     1.0000   1.0000   1.0000   1.0000   1.0000   1.0000   1.0000   1.0000
     1.0000   1.0000   1.0000   1.0000   1.0000   1.0000   1.0000   1.0000
     1.0000   1.0000   1.0000   1.0000   1.0000   1.0000   1.0000   1.0000
     1.0000   1.0000   1.0000   1.0000   0.0000   0.0000   0.0000   0.0000
     0.0000   0.0000   0.0000   0.0000   0.0000   0.0000   0.0000   0.0000
     0.0000   0.0000   0.0000   0.0000

          k = 0.2500 0.3750-0.5000 (  5358 PWs)   bands (ev):

    -6.6672  -6.6672  -6.4885  -6.4885  -0.5668  -0.5667  -0.5485  -0.5484
    -0.5452  -0.5451  -0.5136  -0.5134  -0.3985  -0.3983  -0.2325  -0.2324
    -0.1765  -0.1761  -0.1677  -0.1672  -0.1469  -0.1467  -0.0141  -0.0140
     0.7629   0.7629   1.3395   1.3395   3.6610   3.6610   4.2675   4.2675
     4.4462   4.4462   4.7231   4.7231   9.4343   9.4343   9.8865   9.8865
    11.7763  11.7763  12.1086  12.1086  12.8782  12.8782  13.1588  13.1588
    13.5406  13.5407  14.1871  14.1871

     occupation numbers 
     1.0000   1.0000   1.0000   1.0000   1.0000   1.0000   1.0000   1.0000
     1.0000   1.0000   1.0000   1.0000   1.0000   1.0000   1.0000   1.0000
     1.0000   1.0000   1.0000   1.0000   1.0000   1.0000   1.0000   1.0000
     1.0000   1.0000   1.0000   1.0000   1.0000   1.0000   1.0000   1.0000
     1.0000   1.0000   1.0000   1.0000   0.0000   0.0000   0.0000   0.0000
     0.0000   0.0000   0.0000   0.0000   0.0000   0.0000   0.0000   0.0000
     0.0000   0.0000   0.0000   0.0000

          k = 0.2500-0.5000-0.5000 (  5364 PWs)   bands (ev):

    -6.5763  -6.5763  -6.5763  -6.5763  -0.5531  -0.5527  -0.5527  -0.5527
    -0.5370  -0.5366  -0.5366  -0.5366  -0.2811  -0.2808  -0.2807  -0.2807
    -0.1774  -0.1768  -0.1768  -0.1765  -0.1178  -0.1173  -0.1171  -0.1171
     0.9809   0.9811   0.9811   0.9811   3.9887   3.9887   3.9887   3.9888
     4.6946   4.6947   4.6947   4.6947   9.5492   9.5492   9.5492   9.5493
    12.0908  12.0909  12.0909  12.0909  12.8452  12.8452  12.8452  12.8453
    13.9274  13.9274  13.9274  13.9275

     occupation numbers 
     1.0000   1.0000   1.0000   1.0000   1.0000   1.0000   1.0000   1.0000
     1.0000   1.0000   1.0000   1.0000   1.0000   1.0000   1.0000   1.0000
     1.0000   1.0000   1.0000   1.0000   1.0000   1.0000   1.0000   1.0000
     1.0000   1.0000   1.0000   1.0000   1.0000   1.0000   1.0000   1.0000
     1.0000   1.0000   1.0000   1.0000   0.0000   0.0000   0.0000   0.0000
     0.0000   0.0000   0.0000   0.0000   0.0000   0.0000   0.0000   0.0000
     0.0000   0.0000   0.0000   0.0000

          k = 0.3750 0.3750 0.3750 (  5376 PWs)   bands (ev):

    -6.7162  -6.5252  -6.5252  -6.5252  -0.5668  -0.5668  -0.5574  -0.5574
    -0.5573  -0.5252  -0.5252  -0.5250  -0.4030  -0.2354  -0.2353  -0.2353
    -0.1679  -0.1679  -0.1539  -0.1539  -0.1533  -0.0298  -0.0296  -0.0296
     0.6753   0.6753   0.6753   1.2837   4.1077   4.1077   4.1077   4.4908
     4.4908   4.4909   4.8209   4.8209   8.8852   9.4988   9.4988   9.4989
    11.9256  11.9256  11.9256  12.5436  12.5436  12.9818  12.9818  12.9818
    13.7213  14.1740  14.1740  14.1741

     occupation numbers 
     1.0000   1.0000   1.0000   1.0000   1.0000   1.0000   1.0000   1.0000
     1.0000   1.0000   1.0000   1.0000   1.0000   1.0000   1.0000   1.0000
     1.0000   1.0000   1.0000   1.0000   1.0000   1.0000   1.0000   1.0000
     1.0000   1.0000   1.0000   1.0000   1.0000   1.0000   1.0000   1.0000
     1.0000   1.0000   1.0000   1.0000   0.0000   0.0000   0.0000   0.0000
     0.0000   0.0000   0.0000   0.0000   0.0000   0.0000   0.0000   0.0000
     0.0000   0.0000   0.0000   0.0000

          k = 0.3750 0.3750-0.5000 (  5372 PWs)   bands (ev):

    -6.6191  -6.6191  -6.5219  -6.5219  -0.5621  -0.5618  -0.5529  -0.5527
    -0.5509  -0.5507  -0.5344  -0.5342  -0.2807  -0.2805  -0.1978  -0.1977
    -0.1597  -0.1592  -0.1560  -0.1558  -0.1525  -0.1520   0.0341   0.0343
     0.5002   0.5002   0.9084   0.9084   4.1895   4.1895   4.5670   4.5671
     4.6241   4.6242   4.6569   4.6570   9.0527   9.0527   9.3694   9.3695
    12.0264  12.0265  12.2851  12.2852  12.6732  12.6732  12.8117  12.8117
    14.0281  14.0281  14.3730  14.3730

     occupation numbers 
     1.0000   1.0000   1.0000   1.0000   1.0000   1.0000   1.0000   1.0000
     1.0000   1.0000   1.0000   1.0000   1.0000   1.0000   1.0000   1.0000
     1.0000   1.0000   1.0000   1.0000   1.0000   1.0000   1.0000   1.0000
     1.0000   1.0000   1.0000   1.0000   1.0000   1.0000   1.0000   1.0000
     1.0000   1.0000   1.0000   1.0000   0.0000   0.0000   0.0000   0.0000
     0.0000   0.0000   0.0000   0.0000   0.0000   0.0000   0.0000   0.0000
     0.0000   0.0000   0.0000   0.0000

          k = 0.3750-0.5000-0.5000 (  5388 PWs)   bands (ev):

    -6.5675  -6.5675  -6.5675  -6.5675  -0.5553  -0.5549  -0.5549  -0.5549
    -0.5506  -0.5502  -0.5502  -0.5502  -0.1830  -0.1826  -0.1823  -0.1823
    -0.1628  -0.1622  -0.1622  -0.1619  -0.0763  -0.0759  -0.0758  -0.0758
     0.5868   0.5868   0.5868   0.5868   4.4994   4.4995   4.4995   4.4995
     4.7074   4.7074   4.7074   4.7074   9.0292   9.0292   9.0292   9.0294
    12.3250  12.3250  12.3250  12.3250  12.5666  12.5666  12.5666  12.5666
    14.2939  14.2939  14.2939  14.2939

     occupation numbers 
     1.0000   1.0000   1.0000   1.0000   1.0000   1.0000   1.0000   1.0000
     1.0000   1.0000   1.0000   1.0000   1.0000   1.0000   1.0000   1.0000
     1.0000   1.0000   1.0000   1.0000   1.0000   1.0000   1.0000   1.0000
     1.0000   1.0000   1.0000   1.0000   1.0000   1.0000   1.0000   1.0000
     1.0000   1.0000   1.0000   1.0000   0.0000   0.0000   0.0000   0.0000
     0.0000   0.0000   0.0000   0.0000   0.0000   0.0000   0.0000   0.0000
     0.0000   0.0000   0.0000   0.0000

          k =-0.5000-0.5000-0.5000 (  5400 PWs)   bands (ev):

    -6.5638  -6.5638  -6.5638  -6.5638  -0.5559  -0.5559  -0.5554  -0.5554
    -0.5554  -0.5554  -0.5554  -0.5554  -0.1571  -0.1571  -0.1566  -0.1566
    -0.1566  -0.1562  -0.1562  -0.1562   0.0091   0.0096   0.0096   0.0096
     0.3852   0.3852   0.3852   0.3853   4.7127   4.7127   4.7127   4.7127
     4.7127   4.7128   4.7128   4.7128   8.8096   8.8096   8.8096   8.8097
    12.4662  12.4662  12.4662  12.4662  12.4662  12.4663  12.4663  12.4663
    14.3388  14.3388  14.3388  14.3388

     occupation numbers 
     1.0000   1.0000   1.0000   1.0000   1.0000   1.0000   1.0000   1.0000
     1.0000   1.0000   1.0000   1.0000   1.0000   1.0000   1.0000   1.0000
     1.0000   1.0000   1.0000   1.0000   1.0000   1.0000   1.0000   1.0000
     1.0000   1.0000   1.0000   1.0000   1.0000   1.0000   1.0000   1.0000
     1.0000   1.0000   1.0000   1.0000   0.0000   0.0000   0.0000   0.0000
     0.0000   0.0000   0.0000   0.0000   0.0000   0.0000   0.0000   0.0000
     0.0000   0.0000   0.0000   0.0000

     highest occupied, lowest unoccupied level (ev):     5.5519    7.5596

!    total energy              =    -677.58357601 Ry
     Harris-Foulkes estimate   =    -677.58357642 Ry
     estimated scf accuracy    <       0.00000079 Ry

     The total energy is the sum of the following terms:

     one-electron contribution =    -347.64931024 Ry
     hartree contribution      =     245.40391220 Ry
     xc contribution           =    -209.40957828 Ry
     ewald contribution        =    -365.92859969 Ry

     convergence has been achieved in   6 iterations

     Writing output data file dec.save/
 
     init_run     :      0.75s CPU      0.88s WALL (       1 calls)
     electrons    :     18.95s CPU     19.88s WALL (       1 calls)

     Called by init_run:
     wfcinit      :      0.69s CPU      0.77s WALL (       1 calls)
     wfcinit:atom :      0.00s CPU      0.00s WALL (      35 calls)
     wfcinit:wfcr :      0.67s CPU      0.75s WALL (      35 calls)
     potinit      :      0.01s CPU      0.01s WALL (       1 calls)
     hinit0       :      0.04s CPU      0.06s WALL (       1 calls)

     Called by electrons:
     c_bands      :     16.98s CPU     17.79s WALL (       7 calls)
     sum_band     :      1.89s CPU      1.97s WALL (       7 calls)
     v_of_rho     :      0.03s CPU      0.03s WALL (       7 calls)
     v_h          :      0.00s CPU      0.00s WALL (       7 calls)
     v_xc         :      0.02s CPU      0.02s WALL (       7 calls)
     newd         :      0.04s CPU      0.06s WALL (       7 calls)
     mix_rho      :      0.01s CPU      0.01s WALL (       7 calls)

     Called by c_bands:
     init_us_2    :      0.06s CPU      0.07s WALL (     525 calls)
     cegterg      :     16.68s CPU     17.37s WALL (     245 calls)

     Called by sum_band:
     sum_band:bec :      0.01s CPU      0.01s WALL (     245 calls)
     addusdens    :      0.04s CPU      0.05s WALL (       7 calls)

     Called by *egterg:
     h_psi        :      9.70s CPU     10.12s WALL (    1028 calls)
     s_psi        :      0.15s CPU      0.16s WALL (    1028 calls)
     g_psi        :      0.02s CPU      0.02s WALL (     748 calls)
     cdiaghg      :      6.26s CPU      6.57s WALL (     958 calls)
     cegterg:over :      0.54s CPU      0.56s WALL (     748 calls)
     cegterg:upda :      0.31s CPU      0.31s WALL (     748 calls)
     cegterg:last :      0.13s CPU      0.13s WALL (     245 calls)
     cdiaghg:chol :      0.50s CPU      0.59s WALL (     958 calls)
     cdiaghg:inve :      0.23s CPU      0.24s WALL (     958 calls)
     cdiaghg:para :      0.56s CPU      0.57s WALL (    1916 calls)

     Called by h_psi:
     h_psi:pot    :      9.68s CPU     10.09s WALL (    1028 calls)
     h_psi:calbec :      0.31s CPU      0.33s WALL (    1028 calls)
     vloc_psi     :      9.18s CPU      9.56s WALL (    1028 calls)
     add_vuspsi   :      0.18s CPU      0.19s WALL (    1028 calls)

     General routines
     calbec       :      0.39s CPU      0.42s WALL (    1273 calls)
     fft          :      0.02s CPU      0.04s WALL (      78 calls)
     ffts         :      0.00s CPU      0.00s WALL (       7 calls)
     fftw         :     10.43s CPU     10.86s WALL (   83302 calls)
 
     Parallel routines
     fft_scatt_xy :      0.97s CPU      1.01s WALL (   83387 calls)
     fft_scatt_yz :      6.44s CPU      6.70s WALL (   83387 calls)
 
     PWSCF        :     22.89s CPU     24.50s WALL

 
   This run was terminated on:  12: 3:43  12Apr2023            

=------------------------------------------------------------------------------=
   JOB DONE.
=------------------------------------------------------------------------------=
