
     Program PWSCF v.6.4.1 starts on 31Mar2023 at 15:57: 7 

     This program is part of the open-source Quantum ESPRESSO suite
     for quantum simulation of materials; please cite
         "P. Giannozzi et al., J. Phys.:Condens. Matter 21 395502 (2009);
         "P. Giannozzi et al., J. Phys.:Condens. Matter 29 465901 (2017);
          URL http://www.quantum-espresso.org", 
     in publications or presentations arising from this work. More details at
     http://www.quantum-espresso.org/quote

     Parallel version (MPI & OpenMP), running on      24 processor cores
     Number of MPI processes:                24
     Threads/MPI process:                     1

     MPI processes distributed on     2 nodes
     R & G space division:  proc/nbgrp/npool/nimage =      24
     Waiting for input...
     Reading input from standard input
Warning: card &BANDS ignored
Warning: card LSYM           = .FALSE. ignored
Warning: card SPIN_COMPONENT = 1 ignored
Warning: card / ignored

     Current dimensions of program PWSCF are:
     Max number of different atomic species (ntypx) = 10
     Max number of k-points (npk) =  40000
     Max angular momentum in pseudopotentials (lmaxx) =  3
     Message from routine iosys:
     wrong startingpot: use default (2)

     Atomic positions and unit cell read from directory:
     /scratch/22gg91j21/spha/pseudo/output/ZnS_relax.save/
 
               file Zn.pbe-dnl-rrkjus_psl.1.0.0.UPF: wavefunction(s)  3D renormalized

     Subspace diagonalization in iterative solution of the eigenvalue problem:
     one sub-group per band group will be used
     scalapack distributed-memory algorithm (size of sub-group:  3*  3 procs)

     Found symmetry operation: I + (  0.0000  0.5000  0.5000)
     This is a supercell, fractional translations are disabled
 
     Parallelization info
     --------------------
     sticks:   dense  smooth     PW     G-vecs:    dense   smooth      PW
     Min         166      61     18                 7882     1787     281
     Max         167      62     19                 7887     1790     282
     Sum        3985    1481    437               189191    42931    6763
 

     Title: 
     Optimization of ZnS unit cell                                              


     bravais-lattice index     =            1
     lattice parameter (alat)  =      10.2835  a.u.
     unit-cell volume          =    1087.4757 (a.u.)^3
     number of atoms/cell      =            8
     number of atomic types    =            2
     number of electrons       =        72.00
     number of Kohn-Sham states=           52
     kinetic-energy cutoff     =      44.0000  Ry
     charge density cutoff     =     473.0000  Ry
     Exchange-correlation      = PBE ( 1  4  3  4 0 0)

     celldm(1)=  10.283474  celldm(2)=   0.000000  celldm(3)=   0.000000
     celldm(4)=   0.000000  celldm(5)=   0.000000  celldm(6)=   0.000000

     crystal axes: (cart. coord. in units of alat)
               a(1) = (   1.000000   0.000000   0.000000 )  
               a(2) = (   0.000000   1.000000   0.000000 )  
               a(3) = (   0.000000   0.000000   1.000000 )  

     reciprocal axes: (cart. coord. in units 2 pi/alat)
               b(1) = (  1.000000  0.000000  0.000000 )  
               b(2) = (  0.000000  1.000000  0.000000 )  
               b(3) = (  0.000000  0.000000  1.000000 )  


     PseudoPot. # 1 for Zn read from file:
     /scratch/22gg91j21/spha/pseudo/Zn.pbe-dnl-rrkjus_psl.1.0.0.UPF
     MD5 check sum: 7f56cabf9682ed8c977c2f7d0c5985c5
     Pseudo is Ultrasoft + core correction, Zval = 12.0
     Generated using "atomic" code by A. Dal Corso v.6.2.2
     Using radial grid of 1201 points,  6 beta functions with: 
                l(1) =   0
                l(2) =   0
                l(3) =   1
                l(4) =   1
                l(5) =   2
                l(6) =   2
     Q(r) pseudized with 0 coefficients 


     PseudoPot. # 2 for S  read from file:
     /scratch/22gg91j21/spha/pseudo/S.pbe-nl-rrkjus_psl.1.0.0.UPF
     MD5 check sum: 816524f9d2370a67bf2b5249ef8e004b
     Pseudo is Ultrasoft + core correction, Zval =  6.0
     Generated using "atomic" code by A. Dal Corso v.6.3
     Using radial grid of 1151 points,  4 beta functions with: 
                l(1) =   0
                l(2) =   0
                l(3) =   1
                l(4) =   1
     Q(r) pseudized with 0 coefficients 


     atomic species   valence    mass     pseudopotential
        Zn            12.00    65.38000     Zn( 1.00)
        S              6.00    32.06500     S ( 1.00)

     24 Sym. Ops. (no inversion) found


                                    s                        frac. trans.

      isym =  1     identity                                     

 cryst.   s( 1) = (     1          0          0      )
                  (     0          1          0      )
                  (     0          0          1      )

 cart.    s( 1) = (  1.0000000  0.0000000  0.0000000 )
                  (  0.0000000  1.0000000  0.0000000 )
                  (  0.0000000  0.0000000  1.0000000 )


      isym =  2     180 deg rotation - cart. axis [0,0,1]        

 cryst.   s( 2) = (    -1          0          0      )
                  (     0         -1          0      )
                  (     0          0          1      )

 cart.    s( 2) = ( -1.0000000  0.0000000  0.0000000 )
                  (  0.0000000 -1.0000000  0.0000000 )
                  (  0.0000000  0.0000000  1.0000000 )


      isym =  3     180 deg rotation - cart. axis [0,1,0]        

 cryst.   s( 3) = (    -1          0          0      )
                  (     0          1          0      )
                  (     0          0         -1      )

 cart.    s( 3) = ( -1.0000000  0.0000000  0.0000000 )
                  (  0.0000000  1.0000000  0.0000000 )
                  (  0.0000000  0.0000000 -1.0000000 )


      isym =  4     180 deg rotation - cart. axis [1,0,0]        

 cryst.   s( 4) = (     1          0          0      )
                  (     0         -1          0      )
                  (     0          0         -1      )

 cart.    s( 4) = (  1.0000000  0.0000000  0.0000000 )
                  (  0.0000000 -1.0000000  0.0000000 )
                  (  0.0000000  0.0000000 -1.0000000 )


      isym =  5     120 deg rotation - cart. axis [-1,-1,-1]     

 cryst.   s( 5) = (     0          0          1      )
                  (     1          0          0      )
                  (     0          1          0      )

 cart.    s( 5) = (  0.0000000  1.0000000  0.0000000 )
                  (  0.0000000  0.0000000  1.0000000 )
                  (  1.0000000  0.0000000  0.0000000 )


      isym =  6     120 deg rotation - cart. axis [-1,1,1]       

 cryst.   s( 6) = (     0          0         -1      )
                  (    -1          0          0      )
                  (     0          1          0      )

 cart.    s( 6) = (  0.0000000 -1.0000000  0.0000000 )
                  (  0.0000000  0.0000000  1.0000000 )
                  ( -1.0000000  0.0000000  0.0000000 )


      isym =  7     120 deg rotation - cart. axis [1,1,-1]       

 cryst.   s( 7) = (     0          0         -1      )
                  (     1          0          0      )
                  (     0         -1          0      )

 cart.    s( 7) = (  0.0000000  1.0000000  0.0000000 )
                  (  0.0000000  0.0000000 -1.0000000 )
                  ( -1.0000000  0.0000000  0.0000000 )


      isym =  8     120 deg rotation - cart. axis [1,-1,1]       

 cryst.   s( 8) = (     0          0          1      )
                  (    -1          0          0      )
                  (     0         -1          0      )

 cart.    s( 8) = (  0.0000000 -1.0000000  0.0000000 )
                  (  0.0000000  0.0000000 -1.0000000 )
                  (  1.0000000  0.0000000  0.0000000 )


      isym =  9     120 deg rotation - cart. axis [1,1,1]        

 cryst.   s( 9) = (     0          1          0      )
                  (     0          0          1      )
                  (     1          0          0      )

 cart.    s( 9) = (  0.0000000  0.0000000  1.0000000 )
                  (  1.0000000  0.0000000  0.0000000 )
                  (  0.0000000  1.0000000  0.0000000 )


      isym = 10     120 deg rotation - cart. axis [-1,1,-1]      

 cryst.   s(10) = (     0         -1          0      )
                  (     0          0         -1      )
                  (     1          0          0      )

 cart.    s(10) = (  0.0000000  0.0000000  1.0000000 )
                  ( -1.0000000  0.0000000  0.0000000 )
                  (  0.0000000 -1.0000000  0.0000000 )


      isym = 11     120 deg rotation - cart. axis [1,-1,-1]      

 cryst.   s(11) = (     0         -1          0      )
                  (     0          0          1      )
                  (    -1          0          0      )

 cart.    s(11) = (  0.0000000  0.0000000 -1.0000000 )
                  ( -1.0000000  0.0000000  0.0000000 )
                  (  0.0000000  1.0000000  0.0000000 )


      isym = 12     120 deg rotation - cart. axis [-1,-1,1]      

 cryst.   s(12) = (     0          1          0      )
                  (     0          0         -1      )
                  (    -1          0          0      )

 cart.    s(12) = (  0.0000000  0.0000000 -1.0000000 )
                  (  1.0000000  0.0000000  0.0000000 )
                  (  0.0000000 -1.0000000  0.0000000 )


      isym = 13     inv. 180 deg rotation - cart. axis [1,1,0]   

 cryst.   s(13) = (     0         -1          0      )
                  (    -1          0          0      )
                  (     0          0          1      )

 cart.    s(13) = (  0.0000000 -1.0000000  0.0000000 )
                  ( -1.0000000  0.0000000  0.0000000 )
                  (  0.0000000  0.0000000  1.0000000 )


      isym = 14     inv. 180 deg rotation - cart. axis [1,-1,0]  

 cryst.   s(14) = (     0          1          0      )
                  (     1          0          0      )
                  (     0          0          1      )

 cart.    s(14) = (  0.0000000  1.0000000  0.0000000 )
                  (  1.0000000  0.0000000  0.0000000 )
                  (  0.0000000  0.0000000  1.0000000 )


      isym = 15     inv.  90 deg rotation - cart. axis [0,0,-1]  

 cryst.   s(15) = (     0          1          0      )
                  (    -1          0          0      )
                  (     0          0         -1      )

 cart.    s(15) = (  0.0000000 -1.0000000  0.0000000 )
                  (  1.0000000  0.0000000  0.0000000 )
                  (  0.0000000  0.0000000 -1.0000000 )


      isym = 16     inv.  90 deg rotation - cart. axis [0,0,1]   

 cryst.   s(16) = (     0         -1          0      )
                  (     1          0          0      )
                  (     0          0         -1      )

 cart.    s(16) = (  0.0000000  1.0000000  0.0000000 )
                  ( -1.0000000  0.0000000  0.0000000 )
                  (  0.0000000  0.0000000 -1.0000000 )


      isym = 17     inv. 180 deg rotation - cart. axis [1,0,1]   

 cryst.   s(17) = (     0          0         -1      )
                  (     0          1          0      )
                  (    -1          0          0      )

 cart.    s(17) = (  0.0000000  0.0000000 -1.0000000 )
                  (  0.0000000  1.0000000  0.0000000 )
                  ( -1.0000000  0.0000000  0.0000000 )


      isym = 18     inv. 180 deg rotation - cart. axis [-1,0,1]  

 cryst.   s(18) = (     0          0          1      )
                  (     0          1          0      )
                  (     1          0          0      )

 cart.    s(18) = (  0.0000000  0.0000000  1.0000000 )
                  (  0.0000000  1.0000000  0.0000000 )
                  (  1.0000000  0.0000000  0.0000000 )


      isym = 19     inv.  90 deg rotation - cart. axis [0,1,0]   

 cryst.   s(19) = (     0          0          1      )
                  (     0         -1          0      )
                  (    -1          0          0      )

 cart.    s(19) = (  0.0000000  0.0000000 -1.0000000 )
                  (  0.0000000 -1.0000000  0.0000000 )
                  (  1.0000000  0.0000000  0.0000000 )


      isym = 20     inv.  90 deg rotation - cart. axis [0,-1,0]  

 cryst.   s(20) = (     0          0         -1      )
                  (     0         -1          0      )
                  (     1          0          0      )

 cart.    s(20) = (  0.0000000  0.0000000  1.0000000 )
                  (  0.0000000 -1.0000000  0.0000000 )
                  ( -1.0000000  0.0000000  0.0000000 )


      isym = 21     inv. 180 deg rotation - cart. axis [0,1,1]   

 cryst.   s(21) = (     1          0          0      )
                  (     0          0         -1      )
                  (     0         -1          0      )

 cart.    s(21) = (  1.0000000  0.0000000  0.0000000 )
                  (  0.0000000  0.0000000 -1.0000000 )
                  (  0.0000000 -1.0000000  0.0000000 )


      isym = 22     inv. 180 deg rotation - cart. axis [0,1,-1]  

 cryst.   s(22) = (     1          0          0      )
                  (     0          0          1      )
                  (     0          1          0      )

 cart.    s(22) = (  1.0000000  0.0000000  0.0000000 )
                  (  0.0000000  0.0000000  1.0000000 )
                  (  0.0000000  1.0000000  0.0000000 )


      isym = 23     inv.  90 deg rotation - cart. axis [-1,0,0]  

 cryst.   s(23) = (    -1          0          0      )
                  (     0          0          1      )
                  (     0         -1          0      )

 cart.    s(23) = ( -1.0000000  0.0000000  0.0000000 )
                  (  0.0000000  0.0000000 -1.0000000 )
                  (  0.0000000  1.0000000  0.0000000 )


      isym = 24     inv.  90 deg rotation - cart. axis [1,0,0]   

 cryst.   s(24) = (    -1          0          0      )
                  (     0          0         -1      )
                  (     0          1          0      )

 cart.    s(24) = ( -1.0000000  0.0000000  0.0000000 )
                  (  0.0000000  0.0000000  1.0000000 )
                  (  0.0000000 -1.0000000  0.0000000 )


     point group T_d (-43m) 
     there are  5 classes
     the character table:

       E     8C3   3C2   6S4   6s_d 
A_1    1.00  1.00  1.00  1.00  1.00
A_2    1.00  1.00  1.00 -1.00 -1.00
E      2.00 -1.00  2.00  0.00  0.00
T_1    3.00  0.00 -1.00  1.00 -1.00
T_2    3.00  0.00 -1.00 -1.00  1.00

     the symmetry operations in each class and the name of the first element:

     E        1
          identity                                               
     8C3      5    7    8    6   12    9   10   11
          120 deg rotation - cart. axis [-1,-1,-1]               
     3C2      2    3    4
          180 deg rotation - cart. axis [0,0,1]                  
     6S4     15   16   20   19   23   24
          inv.  90 deg rotation - cart. axis [0,0,-1]            
     6s_d    13   14   17   18   21   22
          inv. 180 deg rotation - cart. axis [1,1,0]             

   Cartesian axes

     site n.     atom                  positions (alat units)
         1           Zn  tau(   1) = (   0.0000000   0.0000000   0.0000000  )
         2           Zn  tau(   2) = (   0.0000000   0.4999998   0.4999998  )
         3           Zn  tau(   3) = (   0.4999998   0.0000000   0.4999998  )
         4           Zn  tau(   4) = (   0.4999998   0.4999998   0.0000000  )
         5           S   tau(   5) = (   0.2500002   0.2500002   0.2500002  )
         6           S   tau(   6) = (   0.2500002   0.7499994   0.7499994  )
         7           S   tau(   7) = (   0.7499994   0.2500002   0.7499994  )
         8           S   tau(   8) = (   0.7499994   0.7499994   0.2500002  )

   Crystallographic axes

     site n.     atom                  positions (cryst. coord.)
         1           Zn  tau(   1) = (  0.0000000  0.0000000  0.0000000  )
         2           Zn  tau(   2) = (  0.0000000  0.4999998  0.4999998  )
         3           Zn  tau(   3) = (  0.4999998  0.0000000  0.4999998  )
         4           Zn  tau(   4) = (  0.4999998  0.4999998  0.0000000  )
         5           S   tau(   5) = (  0.2500002  0.2500002  0.2500002  )
         6           S   tau(   6) = (  0.2500002  0.7499994  0.7499994  )
         7           S   tau(   7) = (  0.7499994  0.2500002  0.7499994  )
         8           S   tau(   8) = (  0.7499994  0.7499994  0.2500002  )

     number of k points=   122
                       cart. coord. in units 2pi/alat
        k(    1) = (   0.0000000   0.0000000   0.0000000), wk =   0.0163934
        k(    2) = (   0.0000000   0.0250000   0.0000000), wk =   0.0163934
        k(    3) = (   0.0000000   0.0500000   0.0000000), wk =   0.0163934
        k(    4) = (   0.0000000   0.0750000   0.0000000), wk =   0.0163934
        k(    5) = (   0.0000000   0.1000000   0.0000000), wk =   0.0163934
        k(    6) = (   0.0000000   0.1250000   0.0000000), wk =   0.0163934
        k(    7) = (   0.0000000   0.1500000   0.0000000), wk =   0.0163934
        k(    8) = (   0.0000000   0.1750000   0.0000000), wk =   0.0163934
        k(    9) = (   0.0000000   0.2000000   0.0000000), wk =   0.0163934
        k(   10) = (   0.0000000   0.2250000   0.0000000), wk =   0.0163934
        k(   11) = (   0.0000000   0.2500000   0.0000000), wk =   0.0163934
        k(   12) = (   0.0000000   0.2750000   0.0000000), wk =   0.0163934
        k(   13) = (   0.0000000   0.3000000   0.0000000), wk =   0.0163934
        k(   14) = (   0.0000000   0.3250000   0.0000000), wk =   0.0163934
        k(   15) = (   0.0000000   0.3500000   0.0000000), wk =   0.0163934
        k(   16) = (   0.0000000   0.3750000   0.0000000), wk =   0.0163934
        k(   17) = (   0.0000000   0.4000000   0.0000000), wk =   0.0163934
        k(   18) = (   0.0000000   0.4250000   0.0000000), wk =   0.0163934
        k(   19) = (   0.0000000   0.4500000   0.0000000), wk =   0.0163934
        k(   20) = (   0.0000000   0.4750000   0.0000000), wk =   0.0163934
        k(   21) = (   0.0000000   0.5000000   0.0000000), wk =   0.0163934
        k(   22) = (   0.0250000   0.5000000   0.0000000), wk =   0.0163934
        k(   23) = (   0.0500000   0.5000000   0.0000000), wk =   0.0163934
        k(   24) = (   0.0750000   0.5000000   0.0000000), wk =   0.0163934
        k(   25) = (   0.1000000   0.5000000   0.0000000), wk =   0.0163934
        k(   26) = (   0.1250000   0.5000000   0.0000000), wk =   0.0163934
        k(   27) = (   0.1500000   0.5000000   0.0000000), wk =   0.0163934
        k(   28) = (   0.1750000   0.5000000   0.0000000), wk =   0.0163934
        k(   29) = (   0.2000000   0.5000000   0.0000000), wk =   0.0163934
        k(   30) = (   0.2250000   0.5000000   0.0000000), wk =   0.0163934
        k(   31) = (   0.2500000   0.5000000   0.0000000), wk =   0.0163934
        k(   32) = (   0.2750000   0.5000000   0.0000000), wk =   0.0163934
        k(   33) = (   0.3000000   0.5000000   0.0000000), wk =   0.0163934
        k(   34) = (   0.3250000   0.5000000   0.0000000), wk =   0.0163934
        k(   35) = (   0.3500000   0.5000000   0.0000000), wk =   0.0163934
        k(   36) = (   0.3750000   0.5000000   0.0000000), wk =   0.0163934
        k(   37) = (   0.4000000   0.5000000   0.0000000), wk =   0.0163934
        k(   38) = (   0.4250000   0.5000000   0.0000000), wk =   0.0163934
        k(   39) = (   0.4500000   0.5000000   0.0000000), wk =   0.0163934
        k(   40) = (   0.4750000   0.5000000   0.0000000), wk =   0.0163934
        k(   41) = (   0.5000000   0.5000000   0.0000000), wk =   0.0163934
        k(   42) = (   0.4750000   0.4750000   0.0000000), wk =   0.0163934
        k(   43) = (   0.4500000   0.4500000   0.0000000), wk =   0.0163934
        k(   44) = (   0.4250000   0.4250000   0.0000000), wk =   0.0163934
        k(   45) = (   0.4000000   0.4000000   0.0000000), wk =   0.0163934
        k(   46) = (   0.3750000   0.3750000   0.0000000), wk =   0.0163934
        k(   47) = (   0.3500000   0.3500000   0.0000000), wk =   0.0163934
        k(   48) = (   0.3250000   0.3250000   0.0000000), wk =   0.0163934
        k(   49) = (   0.3000000   0.3000000   0.0000000), wk =   0.0163934
        k(   50) = (   0.2750000   0.2750000   0.0000000), wk =   0.0163934
        k(   51) = (   0.2500000   0.2500000   0.0000000), wk =   0.0163934
        k(   52) = (   0.2250000   0.2250000   0.0000000), wk =   0.0163934
        k(   53) = (   0.2000000   0.2000000   0.0000000), wk =   0.0163934
        k(   54) = (   0.1750000   0.1750000   0.0000000), wk =   0.0163934
        k(   55) = (   0.1500000   0.1500000   0.0000000), wk =   0.0163934
        k(   56) = (   0.1250000   0.1250000   0.0000000), wk =   0.0163934
        k(   57) = (   0.1000000   0.1000000   0.0000000), wk =   0.0163934
        k(   58) = (   0.0750000   0.0750000   0.0000000), wk =   0.0163934
        k(   59) = (   0.0500000   0.0500000   0.0000000), wk =   0.0163934
        k(   60) = (   0.0250000   0.0250000   0.0000000), wk =   0.0163934
        k(   61) = (   0.0000000   0.0000000   0.0000000), wk =   0.0163934
        k(   62) = (   0.0250000   0.0250000   0.0250000), wk =   0.0163934
        k(   63) = (   0.0500000   0.0500000   0.0500000), wk =   0.0163934
        k(   64) = (   0.0750000   0.0750000   0.0750000), wk =   0.0163934
        k(   65) = (   0.1000000   0.1000000   0.1000000), wk =   0.0163934
        k(   66) = (   0.1250000   0.1250000   0.1250000), wk =   0.0163934
        k(   67) = (   0.1500000   0.1500000   0.1500000), wk =   0.0163934
        k(   68) = (   0.1750000   0.1750000   0.1750000), wk =   0.0163934
        k(   69) = (   0.2000000   0.2000000   0.2000000), wk =   0.0163934
        k(   70) = (   0.2250000   0.2250000   0.2250000), wk =   0.0163934
        k(   71) = (   0.2500000   0.2500000   0.2500000), wk =   0.0163934
        k(   72) = (   0.2750000   0.2750000   0.2750000), wk =   0.0163934
        k(   73) = (   0.3000000   0.3000000   0.3000000), wk =   0.0163934
        k(   74) = (   0.3250000   0.3250000   0.3250000), wk =   0.0163934
        k(   75) = (   0.3500000   0.3500000   0.3500000), wk =   0.0163934
        k(   76) = (   0.3750000   0.3750000   0.3750000), wk =   0.0163934
        k(   77) = (   0.4000000   0.4000000   0.4000000), wk =   0.0163934
        k(   78) = (   0.4250000   0.4250000   0.4250000), wk =   0.0163934
        k(   79) = (   0.4500000   0.4500000   0.4500000), wk =   0.0163934
        k(   80) = (   0.4750000   0.4750000   0.4750000), wk =   0.0163934
        k(   81) = (   0.5000000   0.5000000   0.5000000), wk =   0.0163934
        k(   82) = (   0.4750000   0.5000000   0.4750000), wk =   0.0163934
        k(   83) = (   0.4500000   0.5000000   0.4500000), wk =   0.0163934
        k(   84) = (   0.4250000   0.5000000   0.4250000), wk =   0.0163934
        k(   85) = (   0.4000000   0.5000000   0.4000000), wk =   0.0163934
        k(   86) = (   0.3750000   0.5000000   0.3750000), wk =   0.0163934
        k(   87) = (   0.3500000   0.5000000   0.3500000), wk =   0.0163934
        k(   88) = (   0.3250000   0.5000000   0.3250000), wk =   0.0163934
        k(   89) = (   0.3000000   0.5000000   0.3000000), wk =   0.0163934
        k(   90) = (   0.2750000   0.5000000   0.2750000), wk =   0.0163934
        k(   91) = (   0.2500000   0.5000000   0.2500000), wk =   0.0163934
        k(   92) = (   0.2250000   0.5000000   0.2250000), wk =   0.0163934
        k(   93) = (   0.2000000   0.5000000   0.2000000), wk =   0.0163934
        k(   94) = (   0.1750000   0.5000000   0.1750000), wk =   0.0163934
        k(   95) = (   0.1500000   0.5000000   0.1500000), wk =   0.0163934
        k(   96) = (   0.1250000   0.5000000   0.1250000), wk =   0.0163934
        k(   97) = (   0.1000000   0.5000000   0.1000000), wk =   0.0163934
        k(   98) = (   0.0750000   0.5000000   0.0750000), wk =   0.0163934
        k(   99) = (   0.0500000   0.5000000   0.0500000), wk =   0.0163934
        k(  100) = (   0.0250000   0.5000000   0.0250000), wk =   0.0163934
        k(  101) = (   0.0000000   0.5000000   0.0000000), wk =   0.0163934
        k(  102) = (   0.5000000   0.5000000   0.0000000), wk =   0.0163934
        k(  103) = (   0.5000000   0.5000000   0.0250000), wk =   0.0163934
        k(  104) = (   0.5000000   0.5000000   0.0500000), wk =   0.0163934
        k(  105) = (   0.5000000   0.5000000   0.0750000), wk =   0.0163934
        k(  106) = (   0.5000000   0.5000000   0.1000000), wk =   0.0163934
        k(  107) = (   0.5000000   0.5000000   0.1250000), wk =   0.0163934
        k(  108) = (   0.5000000   0.5000000   0.1500000), wk =   0.0163934
        k(  109) = (   0.5000000   0.5000000   0.1750000), wk =   0.0163934
        k(  110) = (   0.5000000   0.5000000   0.2000000), wk =   0.0163934
        k(  111) = (   0.5000000   0.5000000   0.2250000), wk =   0.0163934
        k(  112) = (   0.5000000   0.5000000   0.2500000), wk =   0.0163934
        k(  113) = (   0.5000000   0.5000000   0.2750000), wk =   0.0163934
        k(  114) = (   0.5000000   0.5000000   0.3000000), wk =   0.0163934
        k(  115) = (   0.5000000   0.5000000   0.3250000), wk =   0.0163934
        k(  116) = (   0.5000000   0.5000000   0.3500000), wk =   0.0163934
        k(  117) = (   0.5000000   0.5000000   0.3750000), wk =   0.0163934
        k(  118) = (   0.5000000   0.5000000   0.4000000), wk =   0.0163934
        k(  119) = (   0.5000000   0.5000000   0.4250000), wk =   0.0163934
        k(  120) = (   0.5000000   0.5000000   0.4500000), wk =   0.0163934
        k(  121) = (   0.5000000   0.5000000   0.4750000), wk =   0.0163934
        k(  122) = (   0.5000000   0.5000000   0.5000000), wk =   0.0163934

                       cryst. coord.
        k(    1) = (   0.0000000   0.0000000   0.0000000), wk =   0.0163934
        k(    2) = (   0.0000000   0.0250000   0.0000000), wk =   0.0163934
        k(    3) = (   0.0000000   0.0500000   0.0000000), wk =   0.0163934
        k(    4) = (   0.0000000   0.0750000   0.0000000), wk =   0.0163934
        k(    5) = (   0.0000000   0.1000000   0.0000000), wk =   0.0163934
        k(    6) = (   0.0000000   0.1250000   0.0000000), wk =   0.0163934
        k(    7) = (   0.0000000   0.1500000   0.0000000), wk =   0.0163934
        k(    8) = (   0.0000000   0.1750000   0.0000000), wk =   0.0163934
        k(    9) = (   0.0000000   0.2000000   0.0000000), wk =   0.0163934
        k(   10) = (   0.0000000   0.2250000   0.0000000), wk =   0.0163934
        k(   11) = (   0.0000000   0.2500000   0.0000000), wk =   0.0163934
        k(   12) = (   0.0000000   0.2750000   0.0000000), wk =   0.0163934
        k(   13) = (   0.0000000   0.3000000   0.0000000), wk =   0.0163934
        k(   14) = (   0.0000000   0.3250000   0.0000000), wk =   0.0163934
        k(   15) = (   0.0000000   0.3500000   0.0000000), wk =   0.0163934
        k(   16) = (   0.0000000   0.3750000   0.0000000), wk =   0.0163934
        k(   17) = (   0.0000000   0.4000000   0.0000000), wk =   0.0163934
        k(   18) = (   0.0000000   0.4250000   0.0000000), wk =   0.0163934
        k(   19) = (   0.0000000   0.4500000   0.0000000), wk =   0.0163934
        k(   20) = (   0.0000000   0.4750000   0.0000000), wk =   0.0163934
        k(   21) = (   0.0000000   0.5000000   0.0000000), wk =   0.0163934
        k(   22) = (   0.0250000   0.5000000   0.0000000), wk =   0.0163934
        k(   23) = (   0.0500000   0.5000000   0.0000000), wk =   0.0163934
        k(   24) = (   0.0750000   0.5000000   0.0000000), wk =   0.0163934
        k(   25) = (   0.1000000   0.5000000   0.0000000), wk =   0.0163934
        k(   26) = (   0.1250000   0.5000000   0.0000000), wk =   0.0163934
        k(   27) = (   0.1500000   0.5000000   0.0000000), wk =   0.0163934
        k(   28) = (   0.1750000   0.5000000   0.0000000), wk =   0.0163934
        k(   29) = (   0.2000000   0.5000000   0.0000000), wk =   0.0163934
        k(   30) = (   0.2250000   0.5000000   0.0000000), wk =   0.0163934
        k(   31) = (   0.2500000   0.5000000   0.0000000), wk =   0.0163934
        k(   32) = (   0.2750000   0.5000000   0.0000000), wk =   0.0163934
        k(   33) = (   0.3000000   0.5000000   0.0000000), wk =   0.0163934
        k(   34) = (   0.3250000   0.5000000   0.0000000), wk =   0.0163934
        k(   35) = (   0.3500000   0.5000000   0.0000000), wk =   0.0163934
        k(   36) = (   0.3750000   0.5000000   0.0000000), wk =   0.0163934
        k(   37) = (   0.4000000   0.5000000   0.0000000), wk =   0.0163934
        k(   38) = (   0.4250000   0.5000000   0.0000000), wk =   0.0163934
        k(   39) = (   0.4500000   0.5000000   0.0000000), wk =   0.0163934
        k(   40) = (   0.4750000   0.5000000   0.0000000), wk =   0.0163934
        k(   41) = (   0.5000000   0.5000000   0.0000000), wk =   0.0163934
        k(   42) = (   0.4750000   0.4750000   0.0000000), wk =   0.0163934
        k(   43) = (   0.4500000   0.4500000   0.0000000), wk =   0.0163934
        k(   44) = (   0.4250000   0.4250000   0.0000000), wk =   0.0163934
        k(   45) = (   0.4000000   0.4000000   0.0000000), wk =   0.0163934
        k(   46) = (   0.3750000   0.3750000   0.0000000), wk =   0.0163934
        k(   47) = (   0.3500000   0.3500000   0.0000000), wk =   0.0163934
        k(   48) = (   0.3250000   0.3250000   0.0000000), wk =   0.0163934
        k(   49) = (   0.3000000   0.3000000   0.0000000), wk =   0.0163934
        k(   50) = (   0.2750000   0.2750000   0.0000000), wk =   0.0163934
        k(   51) = (   0.2500000   0.2500000   0.0000000), wk =   0.0163934
        k(   52) = (   0.2250000   0.2250000   0.0000000), wk =   0.0163934
        k(   53) = (   0.2000000   0.2000000   0.0000000), wk =   0.0163934
        k(   54) = (   0.1750000   0.1750000   0.0000000), wk =   0.0163934
        k(   55) = (   0.1500000   0.1500000   0.0000000), wk =   0.0163934
        k(   56) = (   0.1250000   0.1250000   0.0000000), wk =   0.0163934
        k(   57) = (   0.1000000   0.1000000   0.0000000), wk =   0.0163934
        k(   58) = (   0.0750000   0.0750000   0.0000000), wk =   0.0163934
        k(   59) = (   0.0500000   0.0500000   0.0000000), wk =   0.0163934
        k(   60) = (   0.0250000   0.0250000   0.0000000), wk =   0.0163934
        k(   61) = (   0.0000000   0.0000000   0.0000000), wk =   0.0163934
        k(   62) = (   0.0250000   0.0250000   0.0250000), wk =   0.0163934
        k(   63) = (   0.0500000   0.0500000   0.0500000), wk =   0.0163934
        k(   64) = (   0.0750000   0.0750000   0.0750000), wk =   0.0163934
        k(   65) = (   0.1000000   0.1000000   0.1000000), wk =   0.0163934
        k(   66) = (   0.1250000   0.1250000   0.1250000), wk =   0.0163934
        k(   67) = (   0.1500000   0.1500000   0.1500000), wk =   0.0163934
        k(   68) = (   0.1750000   0.1750000   0.1750000), wk =   0.0163934
        k(   69) = (   0.2000000   0.2000000   0.2000000), wk =   0.0163934
        k(   70) = (   0.2250000   0.2250000   0.2250000), wk =   0.0163934
        k(   71) = (   0.2500000   0.2500000   0.2500000), wk =   0.0163934
        k(   72) = (   0.2750000   0.2750000   0.2750000), wk =   0.0163934
        k(   73) = (   0.3000000   0.3000000   0.3000000), wk =   0.0163934
        k(   74) = (   0.3250000   0.3250000   0.3250000), wk =   0.0163934
        k(   75) = (   0.3500000   0.3500000   0.3500000), wk =   0.0163934
        k(   76) = (   0.3750000   0.3750000   0.3750000), wk =   0.0163934
        k(   77) = (   0.4000000   0.4000000   0.4000000), wk =   0.0163934
        k(   78) = (   0.4250000   0.4250000   0.4250000), wk =   0.0163934
        k(   79) = (   0.4500000   0.4500000   0.4500000), wk =   0.0163934
        k(   80) = (   0.4750000   0.4750000   0.4750000), wk =   0.0163934
        k(   81) = (   0.5000000   0.5000000   0.5000000), wk =   0.0163934
        k(   82) = (   0.4750000   0.5000000   0.4750000), wk =   0.0163934
        k(   83) = (   0.4500000   0.5000000   0.4500000), wk =   0.0163934
        k(   84) = (   0.4250000   0.5000000   0.4250000), wk =   0.0163934
        k(   85) = (   0.4000000   0.5000000   0.4000000), wk =   0.0163934
        k(   86) = (   0.3750000   0.5000000   0.3750000), wk =   0.0163934
        k(   87) = (   0.3500000   0.5000000   0.3500000), wk =   0.0163934
        k(   88) = (   0.3250000   0.5000000   0.3250000), wk =   0.0163934
        k(   89) = (   0.3000000   0.5000000   0.3000000), wk =   0.0163934
        k(   90) = (   0.2750000   0.5000000   0.2750000), wk =   0.0163934
        k(   91) = (   0.2500000   0.5000000   0.2500000), wk =   0.0163934
        k(   92) = (   0.2250000   0.5000000   0.2250000), wk =   0.0163934
        k(   93) = (   0.2000000   0.5000000   0.2000000), wk =   0.0163934
        k(   94) = (   0.1750000   0.5000000   0.1750000), wk =   0.0163934
        k(   95) = (   0.1500000   0.5000000   0.1500000), wk =   0.0163934
        k(   96) = (   0.1250000   0.5000000   0.1250000), wk =   0.0163934
        k(   97) = (   0.1000000   0.5000000   0.1000000), wk =   0.0163934
        k(   98) = (   0.0750000   0.5000000   0.0750000), wk =   0.0163934
        k(   99) = (   0.0500000   0.5000000   0.0500000), wk =   0.0163934
        k(  100) = (   0.0250000   0.5000000   0.0250000), wk =   0.0163934
        k(  101) = (   0.0000000   0.5000000   0.0000000), wk =   0.0163934
        k(  102) = (   0.5000000   0.5000000   0.0000000), wk =   0.0163934
        k(  103) = (   0.5000000   0.5000000   0.0250000), wk =   0.0163934
        k(  104) = (   0.5000000   0.5000000   0.0500000), wk =   0.0163934
        k(  105) = (   0.5000000   0.5000000   0.0750000), wk =   0.0163934
        k(  106) = (   0.5000000   0.5000000   0.1000000), wk =   0.0163934
        k(  107) = (   0.5000000   0.5000000   0.1250000), wk =   0.0163934
        k(  108) = (   0.5000000   0.5000000   0.1500000), wk =   0.0163934
        k(  109) = (   0.5000000   0.5000000   0.1750000), wk =   0.0163934
        k(  110) = (   0.5000000   0.5000000   0.2000000), wk =   0.0163934
        k(  111) = (   0.5000000   0.5000000   0.2250000), wk =   0.0163934
        k(  112) = (   0.5000000   0.5000000   0.2500000), wk =   0.0163934
        k(  113) = (   0.5000000   0.5000000   0.2750000), wk =   0.0163934
        k(  114) = (   0.5000000   0.5000000   0.3000000), wk =   0.0163934
        k(  115) = (   0.5000000   0.5000000   0.3250000), wk =   0.0163934
        k(  116) = (   0.5000000   0.5000000   0.3500000), wk =   0.0163934
        k(  117) = (   0.5000000   0.5000000   0.3750000), wk =   0.0163934
        k(  118) = (   0.5000000   0.5000000   0.4000000), wk =   0.0163934
        k(  119) = (   0.5000000   0.5000000   0.4250000), wk =   0.0163934
        k(  120) = (   0.5000000   0.5000000   0.4500000), wk =   0.0163934
        k(  121) = (   0.5000000   0.5000000   0.4750000), wk =   0.0163934
        k(  122) = (   0.5000000   0.5000000   0.5000000), wk =   0.0163934

     Dense  grid:   189191 G-vectors     FFT dimensions: (  72,  72,  72)

     Smooth grid:    42931 G-vectors     FFT dimensions: (  45,  45,  45)

     Dynamical RAM for                 wfc:       0.18 MB

     Dynamical RAM for     wfc (w. buffer):       0.18 MB

     Dynamical RAM for           str. fact:       0.24 MB

     Dynamical RAM for           local pot:       0.00 MB

     Dynamical RAM for          nlocal pot:       0.35 MB

     Dynamical RAM for                qrad:       5.71 MB

     Dynamical RAM for          rho,v,vnew:       0.72 MB

     Dynamical RAM for           G-vectors:       0.46 MB

     Dynamical RAM for          h,s,v(r/c):       0.22 MB

     Dynamical RAM for          <psi|beta>:       0.08 MB

     Dynamical RAM for                 psi:       0.71 MB

     Dynamical RAM for                hpsi:       0.71 MB

     Dynamical RAM for                spsi:       0.71 MB

     Dynamical RAM for      wfcinit/wfcrot:       0.42 MB

     Dynamical RAM for           addusdens:      22.86 MB

     Estimated static dynamical RAM per process >       8.62 MB

     Estimated max dynamical RAM per process >      31.47 MB

     Estimated total dynamical RAM >     755.35 MB

     The potential is recalculated from file :
     /scratch/22gg91j21/spha/pseudo/output/ZnS_relax.save/charge-density

     Starting wfcs are   52 randomized atomic wfcs

     Band Structure Calculation
     Davidson diagonalization with overlap

     Computing kpt #:     1
     total cpu time spent up to now is        2.1 secs

     Computing kpt #:     2
     total cpu time spent up to now is        2.7 secs

     Computing kpt #:     3
     total cpu time spent up to now is        3.4 secs

     Computing kpt #:     4
     total cpu time spent up to now is        4.0 secs

     Computing kpt #:     5
     total cpu time spent up to now is        4.6 secs

     Computing kpt #:     6
     total cpu time spent up to now is        5.1 secs

     Computing kpt #:     7
     total cpu time spent up to now is        5.6 secs

     Computing kpt #:     8
     total cpu time spent up to now is        6.2 secs

     Computing kpt #:     9
     total cpu time spent up to now is        6.6 secs

     Computing kpt #:    10
     total cpu time spent up to now is        7.2 secs

     Computing kpt #:    11
     total cpu time spent up to now is        7.6 secs

     Computing kpt #:    12
     total cpu time spent up to now is        8.0 secs

     Computing kpt #:    13
     total cpu time spent up to now is        8.5 secs

     Computing kpt #:    14
     total cpu time spent up to now is        9.0 secs

     Computing kpt #:    15
     total cpu time spent up to now is        9.3 secs

     Computing kpt #:    16
     total cpu time spent up to now is        9.7 secs

     Computing kpt #:    17
     total cpu time spent up to now is       10.2 secs

     Computing kpt #:    18
     total cpu time spent up to now is       10.6 secs

     Computing kpt #:    19
     total cpu time spent up to now is       11.0 secs

     Computing kpt #:    20
     total cpu time spent up to now is       11.5 secs

     Computing kpt #:    21
     total cpu time spent up to now is       11.9 secs

     Computing kpt #:    22
     total cpu time spent up to now is       12.3 secs

     Computing kpt #:    23
     total cpu time spent up to now is       12.7 secs

     Computing kpt #:    24
     total cpu time spent up to now is       13.2 secs

     Computing kpt #:    25
     total cpu time spent up to now is       13.7 secs

     Computing kpt #:    26
     total cpu time spent up to now is       14.1 secs

     Computing kpt #:    27
     total cpu time spent up to now is       14.7 secs

     Computing kpt #:    28
     total cpu time spent up to now is       15.2 secs

     Computing kpt #:    29
     total cpu time spent up to now is       15.6 secs

     Computing kpt #:    30
     total cpu time spent up to now is       15.9 secs

     Computing kpt #:    31
     total cpu time spent up to now is       16.3 secs

     Computing kpt #:    32
     total cpu time spent up to now is       16.7 secs

     Computing kpt #:    33
     total cpu time spent up to now is       17.0 secs

     Computing kpt #:    34
     total cpu time spent up to now is       17.4 secs

     Computing kpt #:    35
     total cpu time spent up to now is       17.7 secs

     Computing kpt #:    36
     total cpu time spent up to now is       18.1 secs

     Computing kpt #:    37
     total cpu time spent up to now is       18.4 secs

     Computing kpt #:    38
     total cpu time spent up to now is       18.8 secs

     Computing kpt #:    39
     total cpu time spent up to now is       19.1 secs

     Computing kpt #:    40
     total cpu time spent up to now is       19.5 secs

     Computing kpt #:    41
     total cpu time spent up to now is       19.8 secs

     Computing kpt #:    42
     total cpu time spent up to now is       20.1 secs

     Computing kpt #:    43
     total cpu time spent up to now is       20.4 secs

     Computing kpt #:    44
     total cpu time spent up to now is       20.8 secs

     Computing kpt #:    45
     total cpu time spent up to now is       21.3 secs

     Computing kpt #:    46
     total cpu time spent up to now is       21.6 secs

     Computing kpt #:    47
     total cpu time spent up to now is       22.0 secs

     Computing kpt #:    48
     total cpu time spent up to now is       22.3 secs

     Computing kpt #:    49
     total cpu time spent up to now is       22.7 secs

     Computing kpt #:    50
     total cpu time spent up to now is       23.2 secs

     Computing kpt #:    51
     total cpu time spent up to now is       23.7 secs

     Computing kpt #:    52
     total cpu time spent up to now is       24.1 secs

     Computing kpt #:    53
     total cpu time spent up to now is       24.6 secs

     Computing kpt #:    54
     total cpu time spent up to now is       25.1 secs

     Computing kpt #:    55
     total cpu time spent up to now is       25.6 secs

     Computing kpt #:    56
     total cpu time spent up to now is       26.1 secs

     Computing kpt #:    57
     total cpu time spent up to now is       26.7 secs

     Computing kpt #:    58
     total cpu time spent up to now is       27.3 secs

     Computing kpt #:    59
     total cpu time spent up to now is       28.2 secs

     Computing kpt #:    60
     total cpu time spent up to now is       28.7 secs

     Computing kpt #:    61
     total cpu time spent up to now is       29.3 secs

     Computing kpt #:    62
     total cpu time spent up to now is       30.0 secs

     Computing kpt #:    63
     total cpu time spent up to now is       31.0 secs

     Computing kpt #:    64
     total cpu time spent up to now is       31.4 secs

     Computing kpt #:    65
     total cpu time spent up to now is       31.8 secs

     Computing kpt #:    66
     total cpu time spent up to now is       32.2 secs

     Computing kpt #:    67
     total cpu time spent up to now is       32.7 secs

     Computing kpt #:    68
     total cpu time spent up to now is       33.1 secs

     Computing kpt #:    69
     total cpu time spent up to now is       33.5 secs

     Computing kpt #:    70
     total cpu time spent up to now is       33.9 secs

     Computing kpt #:    71
     total cpu time spent up to now is       34.3 secs

     Computing kpt #:    72
     total cpu time spent up to now is       34.6 secs

     Computing kpt #:    73
     total cpu time spent up to now is       35.0 secs

     Computing kpt #:    74
     total cpu time spent up to now is       35.3 secs

     Computing kpt #:    75
     total cpu time spent up to now is       35.7 secs

     Computing kpt #:    76
     total cpu time spent up to now is       36.0 secs

     Computing kpt #:    77
     total cpu time spent up to now is       36.4 secs

     Computing kpt #:    78
     total cpu time spent up to now is       36.8 secs

     Computing kpt #:    79
     total cpu time spent up to now is       37.1 secs

     Computing kpt #:    80
     total cpu time spent up to now is       37.5 secs

     Computing kpt #:    81
     total cpu time spent up to now is       37.8 secs

     Computing kpt #:    82
     total cpu time spent up to now is       38.1 secs

     Computing kpt #:    83
     total cpu time spent up to now is       38.5 secs

     Computing kpt #:    84
     total cpu time spent up to now is       38.9 secs

     Computing kpt #:    85
     total cpu time spent up to now is       39.2 secs

     Computing kpt #:    86
     total cpu time spent up to now is       39.6 secs

     Computing kpt #:    87
     total cpu time spent up to now is       39.9 secs

     Computing kpt #:    88
     total cpu time spent up to now is       40.2 secs

     Computing kpt #:    89
     total cpu time spent up to now is       40.6 secs

     Computing kpt #:    90
     total cpu time spent up to now is       41.0 secs

     Computing kpt #:    91
     total cpu time spent up to now is       41.3 secs

     Computing kpt #:    92
     total cpu time spent up to now is       41.7 secs

     Computing kpt #:    93
     total cpu time spent up to now is       42.2 secs

     Computing kpt #:    94
     total cpu time spent up to now is       42.6 secs

     Computing kpt #:    95
     total cpu time spent up to now is       43.0 secs

     Computing kpt #:    96
     total cpu time spent up to now is       43.3 secs

     Computing kpt #:    97
     total cpu time spent up to now is       43.7 secs

     Computing kpt #:    98
     total cpu time spent up to now is       44.2 secs

     Computing kpt #:    99
     total cpu time spent up to now is       44.6 secs

     Computing kpt #:   100
     total cpu time spent up to now is       45.1 secs

     Computing kpt #:   101
     total cpu time spent up to now is       45.5 secs

     Computing kpt #:   102
     total cpu time spent up to now is       45.9 secs

     Computing kpt #:   103
     total cpu time spent up to now is       46.2 secs

     Computing kpt #:   104
     total cpu time spent up to now is       46.6 secs

     Computing kpt #:   105
     total cpu time spent up to now is       46.9 secs

     Computing kpt #:   106
     total cpu time spent up to now is       47.3 secs

     Computing kpt #:   107
     total cpu time spent up to now is       47.6 secs

     Computing kpt #:   108
     total cpu time spent up to now is       47.9 secs

     Computing kpt #:   109
     total cpu time spent up to now is       48.2 secs

     Computing kpt #:   110
     total cpu time spent up to now is       48.6 secs

     Computing kpt #:   111
     total cpu time spent up to now is       49.0 secs

     Computing kpt #:   112
     total cpu time spent up to now is       49.3 secs

     Computing kpt #:   113
     total cpu time spent up to now is       49.6 secs

     Computing kpt #:   114
     total cpu time spent up to now is       50.0 secs

     Computing kpt #:   115
     total cpu time spent up to now is       50.3 secs

     Computing kpt #:   116
     total cpu time spent up to now is       50.7 secs

     Computing kpt #:   117
     total cpu time spent up to now is       51.0 secs

     Computing kpt #:   118
     total cpu time spent up to now is       51.4 secs

     Computing kpt #:   119
     total cpu time spent up to now is       51.7 secs

     Computing kpt #:   120
     total cpu time spent up to now is       52.0 secs

     Computing kpt #:   121
     total cpu time spent up to now is       52.4 secs

     Computing kpt #:   122
     total cpu time spent up to now is       52.8 secs

     ethr =  1.39E-09,  avg # of iterations = 19.7

     total cpu time spent up to now is       52.8 secs

     End of band structure calculation

          k = 0.0000 0.0000 0.0000 (  5377 PWs)   bands (ev):

    -7.4584  -6.2676  -6.2675  -6.2674  -0.6844  -0.6842  -0.6840  -0.6648
    -0.6648  -0.6648  -0.3331  -0.3329  -0.3327  -0.3326  -0.3324  -0.3323
    -0.1814  -0.1814  -0.1100  -0.1097  -0.1095   0.0246   0.0246   0.0246
     1.0809   1.0809   1.0809   3.3977   3.3977   3.3977   3.3978   3.3978
     3.3978   5.5494   5.5494   5.5494   7.5574   8.9992   8.9992   8.9992
     9.6182   9.6182   9.6183  11.9396  11.9396  11.9396  16.3604  16.3604
    16.3604  17.1748  17.1748  17.2985

          k = 0.0000 0.0250 0.0000 (  5405 PWs)   bands (ev):

    -7.4568  -6.2697  -6.2675  -6.2674  -0.6844  -0.6835  -0.6832  -0.6650
    -0.6645  -0.6645  -0.3336  -0.3334  -0.3332  -0.3330  -0.3329  -0.3321
    -0.1815  -0.1813  -0.1103  -0.1099  -0.1097   0.0213   0.0258   0.0258
     1.0807   1.0808   1.0893   3.3943   3.3944   3.3945   3.3946   3.4005
     3.4005   5.5321   5.5450   5.5450   7.5763   9.0021   9.0085   9.0085
     9.6209   9.6266   9.6267  11.9307  11.9461  11.9461  16.3416  16.3416
    16.3469  17.1488  17.1767  17.3114

          k = 0.0000 0.0500 0.0000 (  5393 PWs)   bands (ev):

    -7.4522  -6.2763  -6.2674  -6.2673  -0.6848  -0.6808  -0.6805  -0.6657
    -0.6633  -0.6633  -0.3355  -0.3355  -0.3346  -0.3346  -0.3325  -0.3317
    -0.1821  -0.1809  -0.1109  -0.1105  -0.1102   0.0116   0.0291   0.0291
     1.0804   1.0804   1.1143   3.3842   3.3843   3.3849   3.3850   3.4089
     3.4089   5.4819   5.5318   5.5318   7.6310   9.0111   9.0366   9.0366
     9.6291   9.6518   9.6518  11.9044  11.9657  11.9657  16.2872  16.2872
    16.3070  17.0728  17.1826  17.2165

          k = 0.0000 0.0750 0.0000 (  5381 PWs)   bands (ev):

    -7.4445  -6.2873  -6.2672  -6.2671  -0.6856  -0.6765  -0.6762  -0.6667
    -0.6614  -0.6614  -0.3388  -0.3388  -0.3369  -0.3369  -0.3317  -0.3309
    -0.1829  -0.1804  -0.1122  -0.1118  -0.1107  -0.0034   0.0345   0.0346
     1.0798   1.0798   1.1546   3.3678   3.3678   3.3693   3.3694   3.4228
     3.4228   5.4037   5.5100   5.5100   7.7167   9.0262   9.0830   9.0831
     9.6427   9.6932   9.6933  11.8615  11.9982  11.9982  16.2022  16.2022
    16.2423  16.9533  17.0691  17.0692

          k = 0.0000 0.1000 0.0000 (  5377 PWs)   bands (ev):

    -7.4337  -6.3025  -6.2670  -6.2669  -0.6867  -0.6705  -0.6703  -0.6682
    -0.6587  -0.6587  -0.3435  -0.3435  -0.3400  -0.3399  -0.3305  -0.3297
    -0.1841  -0.1796  -0.1140  -0.1136  -0.1115  -0.0222   0.0419   0.0419
     1.0790   1.0790   1.2086   3.3455   3.3456   3.3482   3.3482   3.4422
     3.4422   5.3035   5.4799   5.4799   7.8271   9.0471   9.1472   9.1472
     9.6613   9.7504   9.7504  11.8036  12.0433  12.0433  16.0920  16.0920
    16.1550  16.7996  16.8814  16.8814

          k = 0.0000 0.1250 0.0000 (  5369 PWs)   bands (ev):

    -7.4199  -6.3217  -6.2667  -6.2666  -0.6881  -0.6699  -0.6631  -0.6628
    -0.6552  -0.6552  -0.3495  -0.3495  -0.3436  -0.3436  -0.3290  -0.3282
    -0.1857  -0.1786  -0.1163  -0.1158  -0.1124  -0.0434   0.0510   0.0510
     1.0779   1.0780   1.2747   3.3181   3.3181   3.3221   3.3222   3.4670
     3.4670   5.1868   5.4421   5.4421   7.9562   9.0740   9.2284   9.2284
     9.6849   9.8226   9.8227  11.7322  12.1005  12.1005  15.9616  15.9617
    16.0482  16.6180  16.6636  16.6637

          k = 0.0000 0.1500 0.0000 (  5370 PWs)   bands (ev):

    -7.4032  -6.3449  -6.2664  -6.2663  -0.6898  -0.6721  -0.6543  -0.6540
    -0.6510  -0.6510  -0.3566  -0.3566  -0.3478  -0.3478  -0.3271  -0.3263
    -0.1875  -0.1775  -0.1191  -0.1187  -0.1136  -0.0656   0.0615   0.0615
     1.0767   1.0767   1.3512   3.2863   3.2864   3.2919   3.2920   3.4970
     3.4970   5.0584   5.3969   5.3969   8.0991   9.1066   9.3257   9.3257
     9.7132   9.9088   9.9089  11.6492  12.1692  12.1692  15.8153  15.8153
    15.9251  16.4207  16.4243  16.4243

          k = 0.0000 0.1750 0.0000 (  5354 PWs)   bands (ev):

    -7.3836  -6.3717  -6.2660  -6.2659  -0.6917  -0.6745  -0.6459  -0.6459
    -0.6444  -0.6441  -0.3648  -0.3648  -0.3522  -0.3522  -0.3247  -0.3239
    -0.1895  -0.1761  -0.1226  -0.1222  -0.1150  -0.0877   0.0731   0.0731
     1.0752   1.0752   1.4368   3.2512   3.2513   3.2584   3.2585   3.5321
     3.5321   4.9218   5.3450   5.3450   8.2516   9.1450   9.4379   9.4379
     9.7455  10.0080  10.0080  11.5568  12.2496  12.2496  15.6564  15.6564
    15.7889  16.1699  16.1699  16.2135

          k = 0.0000 0.2000 0.0000 (  5366 PWs)   bands (ev):

    -7.3611  -6.4019  -6.2656  -6.2655  -0.6939  -0.6772  -0.6402  -0.6402
    -0.6335  -0.6333  -0.3741  -0.3741  -0.3568  -0.3568  -0.3217  -0.3210
    -0.1919  -0.1745  -0.1267  -0.1263  -0.1166  -0.1090   0.0856   0.0856
     1.0736   1.0736   1.5301   3.2137   3.2138   3.2226   3.2226   3.5721
     3.5721   4.7796   5.2871   5.2871   8.4105   9.1889   9.5639   9.5639
     9.7814  10.1187  10.1188  11.4564  12.3398  12.3398  15.4876  15.4876
    15.6432  15.9055  15.9056  16.0005

          k = 0.0000 0.2250 0.0000 (  5358 PWs)   bands (ev):

    -7.3359  -6.4352  -6.2652  -6.2650  -0.6962  -0.6801  -0.6338  -0.6338
    -0.6220  -0.6217  -0.3841  -0.3841  -0.3615  -0.3615  -0.3182  -0.3174
    -0.1944  -0.1728  -0.1314  -0.1310  -0.1287  -0.1183   0.0987   0.0987
     1.0719   1.0719   1.6303   3.1747   3.1748   3.1853   3.1854   3.6169
     3.6169   4.6336   5.2238   5.2238   8.5731   9.2384   9.7024   9.7024
     9.8202  10.2397  10.2398  11.3500  12.4397  12.4397  15.3116  15.3116
    15.4912  15.6355  15.6356  15.7871

          k = 0.0000 0.2500 0.0000 (  5342 PWs)   bands (ev):

    -7.3081  -6.4713  -6.2647  -6.2646  -0.6985  -0.6830  -0.6266  -0.6266
    -0.6101  -0.6098  -0.3949  -0.3949  -0.3660  -0.3660  -0.3140  -0.3133
    -0.1971  -0.1708  -0.1465  -0.1367  -0.1363  -0.1202   0.1121   0.1121
     1.0700   1.0700   1.7364   3.1353   3.1353   3.1476   3.1476   3.6663
     3.6663   4.4854   5.1558   5.1558   8.7371   9.2934   9.8519   9.8520
     9.8608  10.3693  10.3694  11.2394  12.5491  12.5491  15.1305  15.1305
    15.3361  15.3631  15.3631  15.5767

          k = 0.0000 0.2750 0.0000 (  5346 PWs)   bands (ev):

    -7.2777  -6.5099  -6.2643  -6.2641  -0.7008  -0.6862  -0.6188  -0.6188
    -0.5981  -0.5978  -0.4065  -0.4065  -0.3704  -0.3704  -0.3091  -0.3084
    -0.2000  -0.1688  -0.1623  -0.1428  -0.1424  -0.1223   0.1254   0.1254
     1.0681   1.0681   1.8477   3.0963   3.0964   3.1103   3.1103   3.7199
     3.7199   4.3358   5.0838   5.0838   8.9003   9.3536   9.9021  10.0109
    10.0109  10.5058  10.5059  11.1254  12.6668  12.6668  14.9468  14.9468
    15.0908  15.0908  15.1811  15.3739

          k = 0.0000 0.3000 0.0000 (  5342 PWs)   bands (ev):

    -7.2450  -6.5507  -6.2638  -6.2637  -0.7031  -0.6894  -0.6103  -0.6103
    -0.5863  -0.5860  -0.4186  -0.4186  -0.3744  -0.3744  -0.3034  -0.3027
    -0.2029  -0.1759  -0.1666  -0.1495  -0.1492  -0.1245   0.1383   0.1384
     1.0661   1.0662   1.9637   3.0587   3.0588   3.0743   3.0744   3.7777
     3.7777   4.1856   5.0084   5.0084   9.0606   9.4189   9.9428  10.1775
    10.1775  10.6470  10.6471  11.0095  12.7925  12.7925  14.7630  14.7630
    14.8217  14.8217  15.0294  15.1810

          k = 0.0000 0.3250 0.0000 (  5350 PWs)   bands (ev):

    -7.2099  -6.5934  -6.2634  -6.2633  -0.7052  -0.6926  -0.6012  -0.6012
    -0.5751  -0.5748  -0.4311  -0.4311  -0.3782  -0.3782  -0.2969  -0.2962
    -0.2058  -0.1874  -0.1643  -0.1570  -0.1567  -0.1268   0.1506   0.1506
     1.0642   1.0643   2.0838   3.0234   3.0235   3.0405   3.0405   3.8394
     3.8394   4.0354   4.9302   4.9302   9.2160   9.4891   9.9810  10.3493
    10.3493  10.7904  10.7905  10.8927  12.9255  12.9255  14.5584  14.5585
    14.5812  14.5812  14.8843  15.0013

          k = 0.0000 0.3500 0.0000 (  5350 PWs)   bands (ev):

    -7.1728  -6.6375  -6.2631  -6.2629  -0.7070  -0.6957  -0.5915  -0.5915
    -0.5647  -0.5645  -0.4439  -0.4439  -0.3815  -0.3815  -0.2894  -0.2887
    -0.2086  -0.1969  -0.1652  -0.1648  -0.1618  -0.1293   0.1620   0.1620
     1.0624   1.0625   2.2076   2.9911   2.9912   3.0096   3.0096   3.8857
     3.9046   3.9046   4.8500   4.8500   9.3643   9.5640  10.0147  10.5235
    10.5235  10.7760  10.9330  10.9331  13.0654  13.0654  14.3046  14.3046
    14.4053  14.4054  14.7487  14.8375

          k = 0.0000 0.3750 0.0000 (  5346 PWs)   bands (ev):

    -7.1337  -6.6828  -6.2627  -6.2626  -0.7084  -0.6987  -0.5812  -0.5812
    -0.5554  -0.5552  -0.4570  -0.4570  -0.3844  -0.3843  -0.2811  -0.2804
    -0.2113  -0.2043  -0.1741  -0.1737  -0.1593  -0.1318   0.1722   0.1722
     1.0607   1.0608   2.3349   2.9625   2.9626   2.9823   2.9823   3.7368
     3.9731   3.9731   4.7683   4.7683   9.5032   9.6438  10.0420  10.6601
    10.6962  10.6962  11.0709  11.0710  13.2116  13.2116  14.0642  14.0642
    14.2393  14.2393  14.6267  14.6922

          k = 0.0000 0.4000 0.0000 (  5354 PWs)   bands (ev):

    -7.0929  -6.7290  -6.2624  -6.2623  -0.7095  -0.7015  -0.5704  -0.5704
    -0.5476  -0.5474  -0.4702  -0.4702  -0.3868  -0.3868  -0.2721  -0.2714
    -0.2138  -0.2099  -0.1835  -0.1831  -0.1566  -0.1344   0.1809   0.1809
     1.0592   1.0594   2.4651   2.9383   2.9384   2.9591   2.9591   3.5888
     4.0447   4.0447   4.6855   4.6855   9.6304   9.7280  10.0600  10.5455
    10.8616  10.8616  11.1992  11.1993  13.3631  13.3631  13.8430  13.8430
    14.0878  14.0878  14.5216  14.5679

          k = 0.0000 0.4250 0.0000 (  5362 PWs)   bands (ev):

    -7.0504  -6.7757  -6.2622  -6.2621  -0.7101  -0.7040  -0.5591  -0.5591
    -0.5413  -0.5411  -0.4834  -0.4834  -0.3887  -0.3886  -0.2624  -0.2618
    -0.2159  -0.2141  -0.1933  -0.1930  -0.1539  -0.1371   0.1879   0.1879
     1.0580   1.0582   2.5981   2.9189   2.9190   2.9405   2.9406   3.4421
     4.1190   4.1190   4.6023   4.6023   9.7437   9.8156  10.0666  10.4333
    11.0118  11.0118  11.3116  11.3117  13.5206  13.5206  13.6495  13.6495
    13.9573  13.9573  14.4358  14.4674

          k = 0.0000 0.4500 0.0000 (  5350 PWs)   bands (ev):

    -7.0066  -6.8226  -6.2620  -6.2619  -0.7103  -0.7060  -0.5473  -0.5473
    -0.5368  -0.5366  -0.4966  -0.4966  -0.3900  -0.3900  -0.2525  -0.2519
    -0.2176  -0.2168  -0.2033  -0.2030  -0.1511  -0.1399   0.1931   0.1931
     1.0571   1.0573   2.7336   2.9047   2.9048   2.9270   2.9270   3.2969
     4.1956   4.1956   4.5192   4.5192   9.8408   9.9058  10.0605  10.3240
    11.1356  11.1356  11.4006  11.4007  13.4948  13.4949  13.6832  13.6832
    13.8555  13.8555  14.3732  14.3768

          k = 0.0000 0.4750 0.0000 (  5362 PWs)   bands (ev):

    -6.9617  -6.8694  -6.2619  -6.2618  -0.7099  -0.7077  -0.5351  -0.5351
    -0.5340  -0.5338  -0.5097  -0.5097  -0.3909  -0.3909  -0.2433  -0.2426
    -0.2188  -0.2182  -0.2126  -0.2123  -0.1483  -0.1427   0.1962   0.1962
     1.0565   1.0567   2.8714   2.8961   2.8962   2.9188   2.9188   3.1532
     4.2744   4.2744   4.4365   4.4365   9.9198   9.9859  10.0523  10.2180
    11.2189  11.2189  11.4582  11.4583  13.3928  13.3928  13.7895  13.7895
    13.8505  13.8505  14.1977  14.1977

          k = 0.0000 0.5000 0.0000 (  5358 PWs)   bands (ev):

    -6.9159  -6.9158  -6.2619  -6.2618  -0.7093  -0.7088  -0.5331  -0.5329
    -0.5229  -0.5229  -0.5221  -0.5221  -0.3912  -0.3912  -0.2384  -0.2377
    -0.2192  -0.2187  -0.2174  -0.2172  -0.1459  -0.1451   0.1972   0.1972
     1.0563   1.0565   2.8932   2.8933   2.9160   2.9160   3.0113   3.0114
     4.3547   4.3548   4.3548   4.3549   9.9775   9.9776  10.1180  10.1181
    11.2486  11.2486  11.4782  11.4784  13.3569  13.3570  13.7668  13.7668
    14.0220  14.0220  14.0221  14.0221

          k = 0.0250 0.5000 0.0000 (  5366 PWs)   bands (ev):

    -6.9149  -6.9148  -6.2629  -6.2628  -0.7086  -0.7082  -0.5330  -0.5329
    -0.5230  -0.5229  -0.5222  -0.5221  -0.3923  -0.3923  -0.2375  -0.2368
    -0.2190  -0.2184  -0.2176  -0.2174  -0.1460  -0.1451   0.1958   0.1958
     1.0568   1.0569   2.8389   2.8389   2.9783   2.9783   3.0035   3.0036
     4.3493   4.3495   4.3604   4.3605   9.9811   9.9811  10.1266  10.1266
    11.2383  11.2383  11.4852  11.4853  13.3230  13.3230  13.8129  13.8129
    13.9523  13.9524  14.0202  14.0203

          k = 0.0500 0.5000 0.0000 (  5370 PWs)   bands (ev):

    -6.9120  -6.9119  -6.2660  -6.2658  -0.7065  -0.7061  -0.5329  -0.5327
    -0.5235  -0.5231  -0.5221  -0.5218  -0.3955  -0.3954  -0.2350  -0.2342
    -0.2183  -0.2181  -0.2179  -0.2177  -0.1461  -0.1453   0.1913   0.1913
     1.0582   1.0583   2.7830   2.7831   2.9805   2.9806   3.0579   3.0579
     4.3333   4.3334   4.3768   4.3769   9.9914   9.9914  10.1526  10.1527
    11.2101  11.2101  11.5037  11.5038  13.2492  13.2492  13.8178  13.8179
    13.9229  13.9230  14.0144  14.0145

          k = 0.0750 0.5000 0.0000 (  5354 PWs)   bands (ev):

    -6.9071  -6.9070  -6.2710  -6.2709  -0.7030  -0.7026  -0.5327  -0.5325
    -0.5243  -0.5239  -0.5216  -0.5212  -0.4004  -0.4003  -0.2314  -0.2307
    -0.2185  -0.2183  -0.2171  -0.2166  -0.1462  -0.1454   0.1839   0.1839
     1.0609   1.0610   2.7357   2.7357   2.9438   2.9439   3.1443   3.1444
     4.3070   4.3071   4.4025   4.4026  10.0075  10.0076  10.1967  10.1968
    11.1687  11.1687  11.5296  11.5297  13.1676  13.1676  13.6700  13.6701
    14.0050  14.0051  14.0642  14.0642

          k = 0.1000 0.5000 0.0000 (  5362 PWs)   bands (ev):

    -6.9003  -6.9002  -6.2781  -6.2779  -0.6981  -0.6977  -0.5325  -0.5324
    -0.5254  -0.5251  -0.5208  -0.5204  -0.4067  -0.4066  -0.2283  -0.2278
    -0.2178  -0.2178  -0.2155  -0.2150  -0.1464  -0.1455   0.1732   0.1732
     1.0653   1.0655   2.6973   2.6973   2.8952   2.8953   3.2365   3.2366
     4.2710   4.2711   4.4357   4.4358  10.0283  10.0284  10.2587  10.2587
    11.1175  11.1176  11.5598  11.5599  13.0907  13.0907  13.5206  13.5207
    13.9917  13.9918  14.2213  14.2213

          k = 0.1250 0.5000 0.0000 (  5360 PWs)   bands (ev):

    -6.8916  -6.8915  -6.2870  -6.2869  -0.6918  -0.6914  -0.5323  -0.5322
    -0.5268  -0.5265  -0.5197  -0.5193  -0.4140  -0.4139  -0.2276  -0.2274
    -0.2145  -0.2142  -0.2136  -0.2131  -0.1465  -0.1457   0.1592   0.1593
     1.0722   1.0723   2.6679   2.6680   2.8368   2.8369   3.3336   3.3336
     4.2261   4.2262   4.4740   4.4741  10.0529  10.0530  10.3380  10.3380
    11.0591  11.0592  11.5933  11.5934  13.0231  13.0231  13.3740  13.3740
    13.9743  13.9743  14.3882  14.3883

          k = 0.1500 0.5000 0.0000 (  5364 PWs)   bands (ev):

    -6.8811  -6.8810  -6.2979  -6.2978  -0.6841  -0.6836  -0.5321  -0.5320
    -0.5285  -0.5281  -0.5184  -0.5180  -0.4219  -0.4217  -0.2291  -0.2290
    -0.2115  -0.2110  -0.2091  -0.2086  -0.1467  -0.1458   0.1420   0.1420
     1.0821   1.0822   2.6476   2.6477   2.7707   2.7708   3.4345   3.4345
     4.1732   4.1733   4.5155   4.5156  10.0805  10.0806  10.4336  10.4336
    10.9953  10.9954  11.6296  11.6297  12.9658  12.9659  13.2321  13.2321
    13.9523  13.9524  14.5596  14.5596

          k = 0.1750 0.5000 0.0000 (  5364 PWs)   bands (ev):

    -6.8688  -6.8687  -6.3106  -6.3105  -0.6750  -0.6745  -0.5320  -0.5319
    -0.5302  -0.5299  -0.5167  -0.5163  -0.4300  -0.4298  -0.2315  -0.2315
    -0.2093  -0.2087  -0.2030  -0.2025  -0.1467  -0.1459   0.1216   0.1216
     1.0956   1.0957   2.6361   2.6361   2.6987   2.6987   3.5383   3.5383
     4.1133   4.1134   4.5581   4.5582  10.1100  10.1101  10.5446  10.5446
    10.9279  10.9279  11.6683  11.6684  12.9192  12.9192  13.0969  13.0969
    13.9258  13.9259  14.7295  14.7296

          k = 0.2000 0.5000 0.0000 (  5352 PWs)   bands (ev):

    -6.8548  -6.8547  -6.3250  -6.3249  -0.6645  -0.6640  -0.5321  -0.5320
    -0.5320  -0.5317  -0.5147  -0.5143  -0.4382  -0.4380  -0.2346  -0.2346
    -0.2070  -0.2064  -0.1970  -0.1964  -0.1465  -0.1458   0.0983   0.0983
     1.1132   1.1133   2.6221   2.6222   2.6331   2.6331   3.6439   3.6439
     4.0474   4.0475   4.6003   4.6004  10.1404  10.1405  10.6698  10.6699
    10.8585  10.8586  11.7095  11.7096  12.8827  12.8827  12.9698  12.9699
    13.8944  13.8945  14.8890  14.8891

          k = 0.2250 0.5000 0.0000 (  5364 PWs)   bands (ev):

    -6.8392  -6.8391  -6.3411  -6.3409  -0.6527  -0.6522  -0.5340  -0.5337
    -0.5322  -0.5322  -0.5123  -0.5119  -0.4462  -0.4459  -0.2381  -0.2381
    -0.2049  -0.2043  -0.1915  -0.1909  -0.1462  -0.1455   0.0726   0.0726
     1.1353   1.1354   2.5425   2.5425   2.6382   2.6383   3.7503   3.7503
     3.9765   3.9766   4.6405   4.6405  10.1705  10.1706  10.7888  10.7888
    10.8079  10.8079  11.7528  11.7529  12.8521  12.8522  12.8553  12.8553
    13.8577  13.8578  15.0211  15.0212

          k = 0.2500 0.5000 0.0000 (  5370 PWs)   bands (ev):

    -6.8220  -6.8219  -6.3587  -6.3586  -0.6396  -0.6391  -0.5359  -0.5356
    -0.5326  -0.5326  -0.5095  -0.5091  -0.4539  -0.4536  -0.2422  -0.2421
    -0.2029  -0.2023  -0.1867  -0.1860  -0.1456  -0.1448   0.0451   0.0451
     1.1620   1.1621   2.4607   2.4608   2.6511   2.6512   3.8563   3.8563
     3.9017   3.9018   4.6774   4.6774  10.1991  10.1992  10.7203  10.7203
    10.9579  10.9580  11.7981  11.7981  12.7451  12.7451  12.8361  12.8362
    13.8160  13.8161  15.0942  15.0942

          k = 0.2750 0.5000 0.0000 (  5364 PWs)   bands (ev):

    -6.8034  -6.8033  -6.3778  -6.3776  -0.6253  -0.6248  -0.5377  -0.5374
    -0.5333  -0.5332  -0.5061  -0.5056  -0.4612  -0.4609  -0.2469  -0.2469
    -0.2012  -0.2007  -0.1828  -0.1822  -0.1446  -0.1439   0.0167   0.0168
     1.1934   1.1935   2.3778   2.3778   2.6714   2.6714   3.8239   3.8240
     3.9610   3.9610   4.7099   4.7100  10.2250  10.2251  10.6543  10.6544
    11.1185  11.1186  11.8447  11.8448  12.6497  12.6497  12.8247  12.8247
    13.7693  13.7694  15.0694  15.0694

          k = 0.3000 0.5000 0.0000 (  5362 PWs)   bands (ev):

    -6.7835  -6.7834  -6.3982  -6.3980  -0.6100  -0.6096  -0.5394  -0.5391
    -0.5342  -0.5340  -0.5019  -0.5014  -0.4681  -0.4678  -0.2526  -0.2526
    -0.2000  -0.1994  -0.1802  -0.1795  -0.1432  -0.1426  -0.0114  -0.0113
     1.2296   1.2297   2.2944   2.2944   2.6985   2.6986   3.7440   3.7441
     4.0632   4.0633   4.7371   4.7371  10.2473  10.2475  10.5923  10.5924
    11.2885  11.2885  11.8921  11.8922  12.5666  12.5666  12.8201  12.8201
    13.7178  13.7179  14.9449  14.9449

          k = 0.3250 0.5000 0.0000 (  5360 PWs)   bands (ev):

    -6.7624  -6.7622  -6.4197  -6.4196  -0.5941  -0.5937  -0.5409  -0.5406
    -0.5353  -0.5351  -0.4966  -0.4961  -0.4745  -0.4742  -0.2598  -0.2598
    -0.1990  -0.1984  -0.1790  -0.1782  -0.1416  -0.1410  -0.0381  -0.0380
     1.2704   1.2704   2.2111   2.2111   2.7322   2.7322   3.6629   3.6630
     4.1620   4.1620   4.7579   4.7580  10.2654  10.2655  10.5353  10.5353
    11.4663  11.4663  11.9394  11.9395  12.4964  12.4965  12.8217  12.8218
    13.6623  13.6623  14.7594  14.7595

          k = 0.3500 0.5000 0.0000 (  5356 PWs)   bands (ev):

    -6.7401  -6.7400  -6.4424  -6.4422  -0.5781  -0.5776  -0.5422  -0.5419
    -0.5365  -0.5363  -0.4897  -0.4892  -0.4804  -0.4801  -0.2693  -0.2692
    -0.1985  -0.1978  -0.1794  -0.1787  -0.1396  -0.1390  -0.0618  -0.0618
     1.3156   1.3157   2.1285   2.1285   2.7719   2.7720   3.5812   3.5813
     4.2561   4.2561   4.7718   4.7718  10.2791  10.2792  10.4841  10.4842
    11.6498  11.6498  11.9857  11.9857  12.4397  12.4397  12.8289  12.8290
    13.6039  13.6040  14.5459  14.5460

          k = 0.3750 0.5000 0.0000 (  5350 PWs)   bands (ev):

    -6.7170  -6.7168  -6.4659  -6.4658  -0.5626  -0.5622  -0.5432  -0.5430
    -0.5379  -0.5377  -0.4860  -0.4858  -0.4806  -0.4801  -0.2817  -0.2816
    -0.1981  -0.1975  -0.1816  -0.1808  -0.1373  -0.1368  -0.0814  -0.0813
     1.3651   1.3651   2.0471   2.0471   2.8174   2.8174   3.4998   3.4999
     4.3446   4.3447   4.7778   4.7779  10.2887  10.2888  10.4395  10.4395
    11.8354  11.8355  12.0298  12.0299  12.3974  12.3975  12.8409  12.8409
    13.5444  13.5445  14.3217  14.3217

          k = 0.4000 0.5000 0.0000 (  5358 PWs)   bands (ev):

    -6.6930  -6.6929  -6.4902  -6.4901  -0.5488  -0.5484  -0.5438  -0.5436
    -0.5394  -0.5391  -0.4914  -0.4911  -0.4684  -0.4680  -0.2977  -0.2976
    -0.1980  -0.1973  -0.1849  -0.1841  -0.1348  -0.1344  -0.0962  -0.0962
     1.4186   1.4187   1.9672   1.9672   2.8681   2.8682   3.4193   3.4194
     4.4267   4.4267   4.7755   4.7755  10.2951  10.2952  10.4016  10.4017
    12.0143  12.0144  12.0708  12.0708  12.3750  12.3750  12.8557  12.8557
    13.4861  13.4861  14.0963  14.0964

          k = 0.4250 0.5000 0.0000 (  5342 PWs)   bands (ev):

    -6.6683  -6.6682  -6.5151  -6.5150  -0.5446  -0.5443  -0.5407  -0.5405
    -0.5365  -0.5364  -0.4965  -0.4963  -0.4527  -0.4524  -0.3172  -0.3171
    -0.1978  -0.1972  -0.1885  -0.1877  -0.1322  -0.1318  -0.1066  -0.1065
     1.4761   1.4761   1.8891   1.8891   2.9239   2.9239   3.3402   3.3403
     4.5014   4.5014   4.7643   4.7644  10.2995  10.2996  10.3709  10.3709
    12.1079  12.1079  12.1553  12.1553  12.3983  12.3984  12.8700  12.8701
    13.4332  13.4332  13.8784  13.8784

          k = 0.4500 0.5000 0.0000 (  5356 PWs)   bands (ev):

    -6.6432  -6.6430  -6.5405  -6.5404  -0.5447  -0.5444  -0.5420  -0.5417
    -0.5270  -0.5269  -0.5016  -0.5014  -0.4335  -0.4333  -0.3395  -0.3395
    -0.1976  -0.1969  -0.1918  -0.1910  -0.1295  -0.1291  -0.1139  -0.1138
     1.5371   1.5371   1.8133   1.8133   2.9841   2.9842   3.2631   3.2632
     4.5680   4.5680   4.7439   4.7439  10.3034  10.3035  10.3469  10.3469
    12.1401  12.1402  12.2071  12.2072  12.5102  12.5102  12.8755  12.8755
    13.3923  13.3924  13.6777  13.6777

          k = 0.4750 0.5000 0.0000 (  5344 PWs)   bands (ev):

    -6.6176  -6.6175  -6.5661  -6.5660  -0.5444  -0.5441  -0.5431  -0.5428
    -0.5192  -0.5192  -0.5069  -0.5068  -0.4116  -0.4114  -0.3635  -0.3634
    -0.1971  -0.1964  -0.1943  -0.1935  -0.1264  -0.1261  -0.1191  -0.1189
     1.6016   1.6016   1.7399   1.7399   3.0486   3.0487   3.1885   3.1886
     4.6259   4.6259   4.7141   4.7141  10.3088  10.3088  10.3291  10.3292
    12.1676  12.1677  12.2060  12.2061  12.6601  12.6601  12.8555  12.8556
    13.3771  13.3771  13.5130  13.5131

          k = 0.5000 0.5000 0.0000 (  5360 PWs)   bands (ev):

    -6.5919  -6.5919  -6.5919  -6.5917  -0.5440  -0.5439  -0.5438  -0.5435
    -0.5128  -0.5126  -0.5126  -0.5126  -0.3880  -0.3878  -0.3878  -0.3878
    -0.1962  -0.1959  -0.1956  -0.1950  -0.1231  -0.1231  -0.1230  -0.1227
     1.6692   1.6693   1.6693   1.6693   3.1168   3.1169   3.1169   3.1170
     4.6746   4.6747   4.6747   4.6747  10.3168  10.3168  10.3168  10.3169
    12.1900  12.1901  12.1901  12.1901  12.7855  12.7855  12.7855  12.7855
    13.4100  13.4100  13.4100  13.4100

          k = 0.4750 0.4750 0.0000 (  5344 PWs)   bands (ev):

    -6.6451  -6.5900  -6.5900  -6.5421  -0.5457  -0.5430  -0.5427  -0.5425
    -0.5247  -0.5143  -0.5142  -0.5004  -0.4348  -0.3874  -0.3874  -0.3390
    -0.1981  -0.1946  -0.1946  -0.1926  -0.1294  -0.1228  -0.1226  -0.1144
     1.5371   1.6691   1.6691   1.8137   2.9822   3.1186   3.1186   3.2617
     4.5854   4.6571   4.6572   4.7616  10.2833  10.3231  10.3388  10.3388
    12.1604  12.1674  12.1674  12.2378  12.5942  12.6826  12.6827  12.9928
    13.2818  13.5305  13.5305  13.5469

          k = 0.4500 0.4500 0.0000 (  5338 PWs)   bands (ev):

    -6.7012  -6.5846  -6.5845  -6.4964  -0.5491  -0.5431  -0.5395  -0.5394
    -0.5365  -0.5186  -0.5185  -0.4880  -0.4774  -0.3862  -0.3862  -0.2929
    -0.1999  -0.1915  -0.1914  -0.1891  -0.1350  -0.1220  -0.1219  -0.1005
     1.4178   1.6684   1.6684   1.9699   2.8592   3.1238   3.1238   3.4148
     4.4945   4.6060   4.6061   4.8456  10.2240  10.3028  10.4015  10.4015
    12.0853  12.0853  12.1486  12.2855  12.4362  12.5067  12.5067  13.1608
    13.2114  13.6928  13.7758  13.7758

          k = 0.4250 0.4250 0.0000 (  5344 PWs)   bands (ev):

    -6.7597  -6.5755  -6.5754  -6.4550  -0.5547  -0.5481  -0.5443  -0.5362
    -0.5361  -0.5235  -0.5234  -0.5140  -0.4755  -0.3844  -0.3844  -0.2564
    -0.2012  -0.1866  -0.1865  -0.1851  -0.1403  -0.1208  -0.1206  -0.0761
     1.3122   1.6667   1.6667   2.1374   2.7499   3.1323   3.1324   3.5747
     4.4027   4.5257   4.5257   4.9259  10.1420  10.2595  10.4941  10.4941
    11.9159  11.9159  12.1486  12.2142  12.3854  12.3854  12.4275  13.0461
    13.4381  13.8486  14.0540  14.0541

          k = 0.4000 0.4000 0.0000 (  5340 PWs)   bands (ev):

    -6.8197  -6.5632  -6.5631  -6.4182  -0.5656  -0.5594  -0.5462  -0.5412
    -0.5406  -0.5404  -0.5205  -0.5205  -0.4630  -0.3823  -0.3822  -0.2353
    -0.2019  -0.1809  -0.1801  -0.1798  -0.1454  -0.1189  -0.1187  -0.0384
     1.2214   1.6634   1.6634   2.3159   2.6560   3.1441   3.1441   3.7394
     4.3108   4.4223   4.4223   5.0020  10.0406  10.1979  10.5985  10.5985
    11.6797  11.6797  12.0788  12.1500  12.3395  12.3395  12.5076  12.9369
    13.6694  14.0150  14.3403  14.3403

          k = 0.3750 0.3750 0.0000 (  5350 PWs)   bands (ev):

    -6.8807  -6.5476  -6.5476  -6.3861  -0.5851  -0.5706  -0.5557  -0.5510
    -0.5510  -0.5491  -0.5110  -0.5110  -0.4505  -0.3798  -0.3798  -0.2285
    -0.2021  -0.1760  -0.1726  -0.1724  -0.1506  -0.1162  -0.1161   0.0085
     1.1466   1.6575   1.6575   2.5049   2.5797   3.1588   3.1588   3.9073
     4.2196   4.3029   4.3030   5.0735   9.9227  10.1233  10.6895  10.6895
    11.4187  11.4187  11.9545  12.1389  12.3585  12.3585  12.5944  12.8320
    13.9007  14.1922  14.6259  14.6259

          k = 0.3500 0.3500 0.0000 (  5344 PWs)   bands (ev):

    -6.9417  -6.5293  -6.5293  -6.3586  -0.6057  -0.5812  -0.5650  -0.5634
    -0.5633  -0.5529  -0.4989  -0.4988  -0.4381  -0.3771  -0.3771  -0.2314
    -0.2017  -0.1708  -0.1646  -0.1645  -0.1553  -0.1126  -0.1125   0.0562
     1.0893   1.6477   1.6477   2.5231   2.7039   3.1762   3.1762   4.0763
     4.1299   4.1749   4.1749   5.1401   9.7913  10.0405  10.7407  10.7407
    11.1538  11.1539  11.8490  12.0996  12.4501  12.4501  12.6732  12.7318
    14.1261  14.3805  14.9061  14.9061

          k = 0.3250 0.3250 0.0000 (  5358 PWs)   bands (ev):

    -7.0020  -6.5086  -6.5085  -6.3355  -0.6232  -0.5915  -0.5765  -0.5765
    -0.5739  -0.5577  -0.4850  -0.4849  -0.4259  -0.3743  -0.3743  -0.2402
    -0.2009  -0.1652  -0.1597  -0.1567  -0.1566  -0.1078  -0.1077   0.0974
     1.0502   1.6327   1.6327   2.4885   2.9125   3.1958   3.1958   4.0423
     4.0449   4.0450   4.2447   5.2015   9.6481   9.9534  10.7351  10.7351
    10.8959  10.8959  11.7639  12.0172  12.6214  12.6214  12.6355  12.7337
    14.3380  14.5799  15.1780  15.1780

          k = 0.3000 0.3000 0.0000 (  5365 PWs)   bands (ev):

    -7.0610  -6.4859  -6.4858  -6.3167  -0.6371  -0.6013  -0.5899  -0.5898
    -0.5830  -0.5638  -0.4697  -0.4697  -0.4140  -0.3712  -0.3712  -0.2527
    -0.1997  -0.1637  -0.1596  -0.1492  -0.1492  -0.1015  -0.1014   0.1271
     1.0287   1.6111   1.6111   2.4782   3.1300   3.2173   3.2173   3.9193
     3.9193   3.9577   4.4103   5.2575   9.4946   9.8648  10.6236  10.6236
    10.7018  10.7018  11.6999  11.8815  12.5436  12.7679  12.8663  12.8663
    14.5281  14.7896  15.4405  15.4405

          k = 0.2750 0.2750 0.0000 (  5369 PWs)   bands (ev):

    -7.1178  -6.4617  -6.4616  -6.3017  -0.6477  -0.6105  -0.6031  -0.6031
    -0.5925  -0.5713  -0.4536  -0.4535  -0.4026  -0.3679  -0.3679  -0.2670
    -0.1982  -0.1672  -0.1538  -0.1426  -0.1426  -0.0934  -0.0933   0.1434
     1.0223   1.5817   1.5817   2.4936   3.2401   3.2401   3.3555   3.8030
     3.8030   3.8768   4.5712   5.3080   9.3319   9.7769  10.3924  10.3924
    10.6017  10.6017  11.6568  11.6916  12.4560  12.7693  13.1691  13.1692
    14.6967  15.0090  15.6097  15.6915

          k = 0.2500 0.2500 0.0000 (  5361 PWs)   bands (ev):

    -7.1720  -6.4366  -6.4365  -6.2901  -0.6554  -0.6193  -0.6159  -0.6159
    -0.6022  -0.5804  -0.4369  -0.4368  -0.3916  -0.3644  -0.3644  -0.2815
    -0.1963  -0.1702  -0.1479  -0.1370  -0.1370  -0.0837  -0.0837   0.1472
     1.0265   1.5437   1.5437   2.5355   3.2635   3.2635   3.5881   3.6999
     3.6999   3.8002   4.7254   5.3532   9.1608   9.6915  10.1672  10.1672
    10.4864  10.4864  11.4566  11.6341  12.3734  12.7355  13.5138  13.5138
    14.8533  15.2389  15.7125  15.9286

          k = 0.2250 0.2250 0.0000 (  5359 PWs)   bands (ev):

    -7.2227  -6.4111  -6.4110  -6.2815  -0.6607  -0.6280  -0.6280  -0.6274
    -0.6120  -0.5912  -0.4202  -0.4201  -0.3812  -0.3606  -0.3605  -0.2952
    -0.1943  -0.1728  -0.1421  -0.1322  -0.1321  -0.0725  -0.0725   0.1410
     1.0362   1.4972   1.4972   2.6026   3.2869   3.2869   3.6126   3.6127
     3.7287   3.8264   4.8708   5.3931   8.9820   9.6090   9.9571   9.9571
    10.3604  10.3604  11.1901  11.6306  12.2961  12.6688  13.8871  13.8871
    15.0093  15.4773  15.8376  16.1447

          k = 0.2000 0.2000 0.0000 (  5353 PWs)   bands (ev):

    -7.2696  -6.3859  -6.3858  -6.2755  -0.6640  -0.6393  -0.6393  -0.6350
    -0.6215  -0.6035  -0.4039  -0.4038  -0.3716  -0.3566  -0.3565  -0.3070
    -0.1922  -0.1750  -0.1364  -0.1280  -0.1279  -0.0602  -0.0602   0.1280
     1.0475   1.4432   1.4432   2.6918   3.3095   3.3095   3.5422   3.5423
     3.6628   4.0687   5.0057   5.4279   8.7964   9.5299   9.7643   9.7643
    10.2313  10.2313  10.9088  11.6451  12.2247  12.5762  14.2779  14.2780
    15.1744  15.7235  15.9848  16.3001

          k = 0.1750 0.1750 0.0000 (  5353 PWs)   bands (ev):

    -7.3121  -6.3617  -6.3616  -6.2714  -0.6659  -0.6495  -0.6495  -0.6417
    -0.6305  -0.6171  -0.3885  -0.3884  -0.3629  -0.3524  -0.3524  -0.3166
    -0.1901  -0.1767  -0.1310  -0.1242  -0.1241  -0.0470  -0.0470   0.1111
     1.0577   1.3835   1.3835   2.7980   3.3307   3.3307   3.4885   3.4885
     3.6031   4.3129   5.1282   5.4578   8.6050   9.4530   9.5905   9.5905
    10.1054  10.1054  10.6282  11.6745  12.1604  12.4674  14.6759  14.6759
    15.3494  15.9748  16.1501  16.4122

          k = 0.1500 0.1500 0.0000 (  5355 PWs)   bands (ev):

    -7.3499  -6.3391  -6.3390  -6.2690  -0.6666  -0.6585  -0.6585  -0.6477
    -0.6389  -0.6313  -0.3745  -0.3744  -0.3551  -0.3482  -0.3482  -0.3236
    -0.1881  -0.1781  -0.1259  -0.1208  -0.1207  -0.0332  -0.0332   0.0928
     1.0658   1.3210   1.3210   2.9147   3.3496   3.3496   3.4498   3.4498
     3.5502   4.5559   5.2371   5.4831   8.4099   9.3774   9.4371   9.4371
     9.9875   9.9875  10.3629  11.7156  12.1035  12.3520  15.0694  15.0694
    15.5331  16.2295  16.3288  16.5264

          k = 0.1250 0.1250 0.0000 (  5351 PWs)   bands (ev):

    -7.3824  -6.3186  -6.3185  -6.2677  -0.6667  -0.6662  -0.6662  -0.6528
    -0.6463  -0.6452  -0.3621  -0.3620  -0.3484  -0.3441  -0.3441  -0.3282
    -0.1862  -0.1792  -0.1213  -0.1177  -0.1177  -0.0193  -0.0193   0.0747
     1.0717   1.2591   1.2591   3.0345   3.3657   3.3658   3.4241   3.4241
     3.5046   4.7934   5.3309   5.5040   8.2144   9.3007   9.3053   9.3053
     9.8813   9.8814  10.1268  11.7645  12.0545  12.2400  15.4428  15.4428
    15.7206  16.4833  16.5170  16.6531

          k = 0.1000 0.1000 0.0000 (  5351 PWs)   bands (ev):

    -7.4094  -6.3010  -6.3009  -6.2672  -0.6727  -0.6726  -0.6663  -0.6580
    -0.6571  -0.6528  -0.3516  -0.3515  -0.3428  -0.3404  -0.3403  -0.3309
    -0.1846  -0.1800  -0.1173  -0.1150  -0.1150  -0.0059  -0.0059   0.0581
     1.0757   1.2015   1.2015   3.1491   3.3786   3.3786   3.4087   3.4087
     3.4666   5.0192   5.4088   5.5206   8.0238   9.1962   9.1962   9.2214
     9.7903   9.7903   9.9318  11.8158  12.0136  12.1386  15.7752  15.7752
    15.9048  16.7046  16.7300  16.7990

          k = 0.0750 0.0750 0.0000 (  5363 PWs)   bands (ev):

    -7.4307  -6.2867  -6.2866  -6.2671  -0.6777  -0.6777  -0.6689  -0.6659
    -0.6605  -0.6579  -0.3434  -0.3433  -0.3384  -0.3372  -0.3371  -0.3322
    -0.1832  -0.1806  -0.1141  -0.1128  -0.1128   0.0062   0.0062   0.0441
     1.0783   1.1518   1.1518   3.2501   3.3880   3.3880   3.4008   3.4008
     3.4367   5.2237   5.4700   5.5334   7.8470   9.1104   9.1104   9.1412
     9.7166   9.7166   9.7859  11.8640  11.9814  12.0546  16.0410  16.0410
    16.0765  16.8831  16.9597  16.9677

          k = 0.0500 0.0500 0.0000 (  5381 PWs)   bands (ev):

    -7.4460  -6.2762  -6.2761  -6.2673  -0.6813  -0.6813  -0.6772  -0.6654
    -0.6629  -0.6618  -0.3375  -0.3373  -0.3354  -0.3348  -0.3346  -0.3326
    -0.1822  -0.1811  -0.1118  -0.1111  -0.1111   0.0160   0.0160   0.0335
     1.0798   1.1135   1.1135   3.3294   3.3940   3.3940   3.3978   3.3978
     3.4151   5.3930   5.5140   5.5423   7.6977   9.0487   9.0487   9.0687
     9.6625   9.6625   9.6890  11.9039  11.9582  11.9914  16.2221  16.2244
    16.2244  17.0336  17.1341  17.1453

          k = 0.0250 0.0250 0.0000 (  5411 PWs)   bands (ev):

    -7.4553  -6.2697  -6.2696  -6.2674  -0.6835  -0.6835  -0.6824  -0.6650
    -0.6643  -0.6641  -0.3340  -0.3338  -0.3337  -0.3334  -0.3330  -0.3326
[...]
    -0.5351  -0.5345  -0.4952  -0.4946  -0.4753  -0.4751  -0.2335  -0.2334
    -0.1861  -0.1856  -0.1753  -0.1747  -0.1497  -0.1490   0.0853   0.0854
     0.8411   0.8412   1.9666   1.9666   3.1122   3.1122   4.0233   4.0233
     4.4200   4.4200   4.4980   4.4982   9.6651   9.6652  10.5068  10.5069
    11.4767  11.4767  11.6303  11.6303  12.9920  12.9920  13.2832  13.2832
    13.3194  13.3195  14.7151  14.7151

          k = 0.2000 0.5000 0.2000 (  5344 PWs)   bands (ev):

    -6.8025  -6.8023  -6.3728  -6.3726  -0.6268  -0.6263  -0.5353  -0.5352
    -0.5328  -0.5322  -0.5063  -0.5057  -0.4648  -0.4646  -0.2334  -0.2333
    -0.1921  -0.1915  -0.1816  -0.1810  -0.1491  -0.1484   0.0973   0.0974
     0.8995   0.8996   2.1490   2.1491   2.9726   2.9726   3.9021   3.9021
     4.3942   4.3942   4.4715   4.4717   9.7508   9.7509  10.6580  10.6581
    11.4109  11.4109  11.4571  11.4571  12.9623  12.9623  13.2134  13.2135
    13.4411  13.4411  14.9072  14.9073

          k = 0.1750 0.5000 0.1750 (  5352 PWs)   bands (ev):

    -6.8268  -6.8267  -6.3500  -6.3499  -0.6442  -0.6437  -0.5337  -0.5337
    -0.5307  -0.5300  -0.5133  -0.5126  -0.4539  -0.4537  -0.2319  -0.2319
    -0.1978  -0.1972  -0.1889  -0.1882  -0.1485  -0.1478   0.1110   0.1111
     0.9517   0.9518   2.3248   2.3248   2.8571   2.8571   3.7755   3.7755
     4.3735   4.3735   4.4465   4.4467   9.8235   9.8237  10.7875  10.7876
    11.1704  11.1705  11.4610  11.4610  12.9934  12.9934  13.1389  13.1389
    13.5586  13.5587  14.9882  14.9882

          k = 0.1500 0.5000 0.1500 (  5336 PWs)   bands (ev):

    -6.8490  -6.8489  -6.3288  -6.3287  -0.6605  -0.6601  -0.5327  -0.5327
    -0.5288  -0.5281  -0.5174  -0.5167  -0.4425  -0.4423  -0.2295  -0.2295
    -0.2030  -0.2024  -0.1970  -0.1963  -0.1479  -0.1471   0.1262   0.1263
     0.9948   0.9950   2.4895   2.4896   2.7700   2.7700   3.6450   3.6450
     4.3584   4.3584   4.4237   4.4239   9.8828   9.8829  10.8945  10.8945
    10.9272  10.9272  11.4828  11.4828  13.0745  13.0745  13.0775  13.0776
    13.6693  13.6693  14.8962  14.8962

          k = 0.1250 0.5000 0.1250 (  5342 PWs)   bands (ev):

    -6.8686  -6.8685  -6.3097  -6.3095  -0.6750  -0.6746  -0.5323  -0.5322
    -0.5271  -0.5263  -0.5200  -0.5193  -0.4308  -0.4306  -0.2269  -0.2268
    -0.2077  -0.2072  -0.2057  -0.2050  -0.1474  -0.1466   0.1424   0.1425
     1.0267   1.0268   2.6387   2.6387   2.7149   2.7149   3.5125   3.5125
     4.3493   4.3493   4.4035   4.4037   9.9285   9.9286  10.6965  10.6965
    10.9821  10.9822  11.5107  11.5108  13.0440  13.0440  13.1953  13.1954
    13.7694  13.7695  14.7042  14.7042

          k = 0.1000 0.5000 0.1000 (  5338 PWs)   bands (ev):

    -6.8852  -6.8851  -6.2932  -6.2930  -0.6872  -0.6867  -0.5322  -0.5321
    -0.5256  -0.5248  -0.5214  -0.5207  -0.4192  -0.4191  -0.2245  -0.2243
    -0.2143  -0.2137  -0.2117  -0.2111  -0.1469  -0.1461   0.1587   0.1587
     1.0465   1.0467   2.6936   2.6937   2.7676   2.7677   3.3802   3.3803
     4.3457   4.3457   4.3864   4.3866   9.9613   9.9615  10.4913  10.4914
    11.0566  11.0566  11.5304  11.5305  13.0495  13.0495  13.3476  13.3476
    13.8564  13.8565  14.4794  14.4794

          k = 0.0750 0.5000 0.0750 (  5358 PWs)   bands (ev):

    -6.8985  -6.8983  -6.2798  -6.2797  -0.6968  -0.6963  -0.5325  -0.5324
    -0.5244  -0.5237  -0.5222  -0.5215  -0.4085  -0.4084  -0.2255  -0.2249
    -0.2196  -0.2193  -0.2149  -0.2143  -0.1465  -0.1457   0.1737   0.1737
     1.0558   1.0560   2.7055   2.7056   2.8721   2.8722   3.2505   3.2505
     4.3466   4.3467   4.3727   4.3729   9.9817   9.9819  10.3231  10.3231
    11.1228  11.1228  11.5321  11.5322  13.0990  13.0991  13.5233  13.5233
    13.9269  13.9270  14.2508  14.2508

          k = 0.0500 0.5000 0.0500 (  5370 PWs)   bands (ev):

    -6.9081  -6.9080  -6.2700  -6.2698  -0.7037  -0.7033  -0.5328  -0.5326
    -0.5236  -0.5228  -0.5227  -0.5219  -0.3994  -0.3994  -0.2317  -0.2310
    -0.2188  -0.2186  -0.2173  -0.2167  -0.1462  -0.1454   0.1861   0.1862
     1.0580   1.0582   2.7477   2.7477   2.9488   2.9489   3.1260   3.1260
     4.3500   4.3500   4.3628   4.3630   9.9889   9.9890  10.2022  10.2023
    11.1821  11.1822  11.5156  11.5157  13.1880  13.1880  13.7139  13.7139
    13.9791  13.9792  14.0350  14.0350

          k = 0.0250 0.5000 0.0250 (  5360 PWs)   bands (ev):

    -6.9140  -6.9138  -6.2639  -6.2638  -0.7079  -0.7075  -0.5330  -0.5328
    -0.5231  -0.5228  -0.5223  -0.5221  -0.3934  -0.3934  -0.2366  -0.2359
    -0.2188  -0.2182  -0.2178  -0.2176  -0.1460  -0.1452   0.1944   0.1944
     1.0571   1.0572   2.8153   2.8153   2.9956   2.9957   3.0099   3.0100
     4.3534   4.3534   4.3567   4.3569   9.9833   9.9834  10.1365  10.1365
    11.2291  11.2291  11.4910  11.4911  13.2955  13.2955  13.8528  13.8528
    13.9053  13.9053  14.0112  14.0113

          k = 0.0000 0.5000 0.0000 (  5358 PWs)   bands (ev):

    -6.9159  -6.9158  -6.2619  -6.2618  -0.7093  -0.7088  -0.5331  -0.5329
    -0.5229  -0.5229  -0.5221  -0.5221  -0.3912  -0.3912  -0.2384  -0.2377
    -0.2192  -0.2187  -0.2174  -0.2172  -0.1459  -0.1451   0.1972   0.1972
     1.0563   1.0565   2.8932   2.8933   2.9160   2.9160   3.0113   3.0114
     4.3547   4.3548   4.3548   4.3549   9.9775   9.9776  10.1180  10.1181
    11.2486  11.2486  11.4782  11.4784  13.3569  13.3570  13.7668  13.7668
    14.0220  14.0220  14.0221  14.0221

          k = 0.5000 0.5000 0.0000 (  5360 PWs)   bands (ev):

    -6.5919  -6.5919  -6.5919  -6.5917  -0.5440  -0.5439  -0.5438  -0.5435
    -0.5128  -0.5126  -0.5126  -0.5126  -0.3880  -0.3878  -0.3878  -0.3878
    -0.1962  -0.1959  -0.1956  -0.1950  -0.1231  -0.1231  -0.1230  -0.1227
     1.6692   1.6693   1.6693   1.6693   3.1168   3.1169   3.1169   3.1170
     4.6746   4.6747   4.6747   4.6747  10.3168  10.3168  10.3168  10.3169
    12.1900  12.1901  12.1901  12.1901  12.7855  12.7855  12.7855  12.7855
    13.4100  13.4100  13.4100  13.4100

          k = 0.5000 0.5000 0.0250 (  5352 PWs)   bands (ev):

    -6.5918  -6.5917  -6.5917  -6.5915  -0.5441  -0.5440  -0.5439  -0.5436
    -0.5130  -0.5129  -0.5129  -0.5128  -0.3868  -0.3867  -0.3866  -0.3866
    -0.1959  -0.1956  -0.1953  -0.1947  -0.1230  -0.1230  -0.1229  -0.1226
     1.6571   1.6571   1.6572   1.6572   3.1311   3.1311   3.1312   3.1312
     4.6749   4.6749   4.6749   4.6749  10.3070  10.3071  10.3071  10.3072
    12.1748  12.1749  12.1749  12.1749  12.8140  12.8141  12.8141  12.8141
    13.4007  13.4007  13.4007  13.4007

          k = 0.5000 0.5000 0.0500 (  5344 PWs)   bands (ev):

    -6.5913  -6.5913  -6.5913  -6.5911  -0.5444  -0.5443  -0.5442  -0.5439
    -0.5139  -0.5138  -0.5137  -0.5137  -0.3833  -0.3832  -0.3831  -0.3831
    -0.1950  -0.1947  -0.1944  -0.1938  -0.1229  -0.1228  -0.1228  -0.1224
     1.6222   1.6223   1.6223   1.6223   3.1724   3.1725   3.1725   3.1726
     4.6755   4.6755   4.6756   4.6756  10.2781  10.2782  10.2782  10.2783
    12.1381  12.1381  12.1381  12.1381  12.8907  12.8908  12.8908  12.8908
    13.3732  13.3732  13.3732  13.3732

          k = 0.5000 0.5000 0.0750 (  5344 PWs)   bands (ev):

    -6.5906  -6.5905  -6.5905  -6.5903  -0.5449  -0.5448  -0.5447  -0.5445
    -0.5152  -0.5151  -0.5151  -0.5150  -0.3775  -0.3774  -0.3774  -0.3773
    -0.1936  -0.1932  -0.1930  -0.1924  -0.1225  -0.1225  -0.1224  -0.1221
     1.5683   1.5684   1.5684   1.5684   3.2370   3.2370   3.2370   3.2371
     4.6766   4.6766   4.6766   4.6766  10.2307  10.2307  10.2307  10.2308
    12.0956  12.0957  12.0957  12.0957  12.9983  12.9983  12.9983  12.9984
    13.3300  13.3300  13.3300  13.3300

          k = 0.5000 0.5000 0.1000 (  5360 PWs)   bands (ev):

    -6.5896  -6.5895  -6.5895  -6.5893  -0.5456  -0.5455  -0.5454  -0.5452
    -0.5171  -0.5170  -0.5169  -0.5169  -0.3695  -0.3694  -0.3694  -0.3693
    -0.1916  -0.1913  -0.1910  -0.1904  -0.1221  -0.1221  -0.1220  -0.1217
     1.5000   1.5001   1.5001   1.5001   3.3198   3.3199   3.3199   3.3200
     4.6780   4.6780   4.6781   4.6781  10.1658  10.1659  10.1659  10.1660
    12.0586  12.0586  12.0586  12.0586  13.1240  13.1240  13.1240  13.1241
    13.2741  13.2741  13.2741  13.2741

          k = 0.5000 0.5000 0.1250 (  5360 PWs)   bands (ev):

    -6.5883  -6.5883  -6.5883  -6.5881  -0.5464  -0.5463  -0.5462  -0.5459
    -0.5193  -0.5192  -0.5192  -0.5191  -0.3594  -0.3592  -0.3592  -0.3592
    -0.1893  -0.1889  -0.1886  -0.1881  -0.1214  -0.1214  -0.1213  -0.1210
     1.4217   1.4217   1.4218   1.4218   3.4164   3.4164   3.4164   3.4165
     4.6798   4.6798   4.6799   4.6799  10.0857  10.0858  10.0858  10.0859
    12.0326  12.0326  12.0326  12.0326  13.2091  13.2091  13.2091  13.2092
    13.2596  13.2596  13.2596  13.2596

          k = 0.5000 0.5000 0.1500 (  5368 PWs)   bands (ev):

    -6.5868  -6.5868  -6.5868  -6.5866  -0.5472  -0.5471  -0.5470  -0.5468
    -0.5219  -0.5218  -0.5218  -0.5217  -0.3471  -0.3470  -0.3469  -0.3469
    -0.1865  -0.1861  -0.1859  -0.1853  -0.1206  -0.1206  -0.1205  -0.1202
     1.3369   1.3370   1.3370   1.3371   3.5226   3.5227   3.5227   3.5228
     4.6819   4.6819   4.6820   4.6820   9.9927   9.9927   9.9928   9.9928
    12.0196  12.0196  12.0196  12.0196  13.1381  13.1381  13.1381  13.1382
    13.3994  13.3994  13.3994  13.3994

          k = 0.5000 0.5000 0.1750 (  5372 PWs)   bands (ev):

    -6.5852  -6.5852  -6.5852  -6.5850  -0.5480  -0.5479  -0.5478  -0.5476
    -0.5248  -0.5246  -0.5246  -0.5246  -0.3328  -0.3326  -0.3326  -0.3325
    -0.1834  -0.1831  -0.1828  -0.1823  -0.1196  -0.1196  -0.1195  -0.1192
     1.2486   1.2486   1.2487   1.2487   3.6353   3.6353   3.6353   3.6354
     4.6843   4.6843   4.6843   4.6844   9.8895   9.8895   9.8895   9.8896
    12.0200  12.0201  12.0201  12.0201  13.0641  13.0641  13.0641  13.0641
    13.5391  13.5391  13.5392  13.5392

          k = 0.5000 0.5000 0.2000 (  5372 PWs)   bands (ev):

    -6.5834  -6.5834  -6.5834  -6.5832  -0.5488  -0.5487  -0.5486  -0.5484
    -0.5278  -0.5276  -0.5276  -0.5276  -0.3165  -0.3163  -0.3162  -0.3162
    -0.1802  -0.1799  -0.1796  -0.1790  -0.1182  -0.1182  -0.1181  -0.1178
     1.1587   1.1587   1.1588   1.1588   3.7517   3.7517   3.7517   3.7518
     4.6868   4.6869   4.6869   4.6869   9.7791   9.7791   9.7792   9.7792
    12.0327  12.0327  12.0327  12.0327  12.9892  12.9892  12.9892  12.9892
    13.6753  13.6753  13.6753  13.6754

          k = 0.5000 0.5000 0.2250 (  5380 PWs)   bands (ev):

    -6.5815  -6.5815  -6.5815  -6.5813  -0.5496  -0.5495  -0.5494  -0.5491
    -0.5309  -0.5308  -0.5308  -0.5307  -0.2984  -0.2982  -0.2981  -0.2980
    -0.1769  -0.1765  -0.1762  -0.1757  -0.1164  -0.1164  -0.1163  -0.1161
     1.0688   1.0689   1.0689   1.0689   3.8695   3.8695   3.8695   3.8696
     4.6896   4.6896   4.6896   4.6897   9.6643   9.6644   9.6644   9.6645
    12.0561  12.0562  12.0562  12.0562  12.9154  12.9155  12.9155  12.9155
    13.8044  13.8045  13.8045  13.8045

          k = 0.5000 0.5000 0.2500 (  5364 PWs)   bands (ev):

    -6.5796  -6.5796  -6.5795  -6.5794  -0.5502  -0.5501  -0.5500  -0.5498
    -0.5341  -0.5339  -0.5339  -0.5338  -0.2786  -0.2784  -0.2783  -0.2782
    -0.1735  -0.1731  -0.1728  -0.1723  -0.1140  -0.1140  -0.1140  -0.1137
     0.9802   0.9803   0.9803   0.9803   3.9867   3.9867   3.9868   3.9868
     4.6924   4.6924   4.6924   4.6925   9.5480   9.5481   9.5481   9.5482
    12.0889  12.0889  12.0889  12.0889  12.8444  12.8444  12.8445  12.8445
    13.9236  13.9237  13.9237  13.9237

          k = 0.5000 0.5000 0.2750 (  5368 PWs)   bands (ev):

    -6.5776  -6.5776  -6.5776  -6.5774  -0.5508  -0.5507  -0.5506  -0.5504
    -0.5372  -0.5370  -0.5370  -0.5370  -0.2576  -0.2574  -0.2573  -0.2571
    -0.1702  -0.1698  -0.1695  -0.1690  -0.1108  -0.1107  -0.1107  -0.1105
     0.8938   0.8939   0.8939   0.8939   4.1014   4.1014   4.1015   4.1015
     4.6952   4.6952   4.6952   4.6953   9.4327   9.4328   9.4328   9.4329
    12.1290  12.1290  12.1290  12.1291  12.7773  12.7774  12.7774  12.7774
    14.0298  14.0298  14.0298  14.0299

          k = 0.5000 0.5000 0.3000 (  5392 PWs)   bands (ev):

    -6.5757  -6.5757  -6.5757  -6.5755  -0.5514  -0.5512  -0.5511  -0.5509
    -0.5402  -0.5400  -0.5400  -0.5399  -0.2360  -0.2357  -0.2356  -0.2354
    -0.1670  -0.1667  -0.1664  -0.1659  -0.1061  -0.1060  -0.1060  -0.1058
     0.8104   0.8105   0.8105   0.8106   4.2117   4.2117   4.2118   4.2118
     4.6979   4.6979   4.6980   4.6980   9.3207   9.3207   9.3208   9.3208
    12.1746  12.1746  12.1746  12.1746  12.7150  12.7151  12.7151  12.7151
    14.1205  14.1206  14.1206  14.1206

          k = 0.5000 0.5000 0.3250 (  5396 PWs)   bands (ev):

    -6.5739  -6.5739  -6.5739  -6.5737  -0.5518  -0.5517  -0.5516  -0.5513
    -0.5429  -0.5427  -0.5427  -0.5427  -0.2147  -0.2145  -0.2143  -0.2140
    -0.1640  -0.1637  -0.1634  -0.1629  -0.0991  -0.0991  -0.0990  -0.0988
     0.7308   0.7308   0.7309   0.7309   4.3157   4.3158   4.3158   4.3159
     4.7005   4.7005   4.7006   4.7006   9.2144   9.2144   9.2145   9.2146
    12.2238  12.2238  12.2238  12.2238  12.6587  12.6587  12.6587  12.6588
    14.1941  14.1942  14.1942  14.1942

          k = 0.5000 0.5000 0.3500 (  5384 PWs)   bands (ev):

    -6.5723  -6.5723  -6.5722  -6.5720  -0.5521  -0.5520  -0.5519  -0.5517
    -0.5454  -0.5452  -0.5452  -0.5452  -0.1953  -0.1951  -0.1949  -0.1945
    -0.1613  -0.1610  -0.1607  -0.1602  -0.0886  -0.0885  -0.0885  -0.0883
     0.6556   0.6557   0.6557   0.6558   4.4115   4.4116   4.4116   4.4117
     4.7029   4.7029   4.7030   4.7030   9.1162   9.1163   9.1163   9.1164
    12.2743  12.2743  12.2743  12.2744  12.6088  12.6088  12.6088  12.6089
    14.2501  14.2501  14.2502  14.2502

          k = 0.5000 0.5000 0.3750 (  5388 PWs)   bands (ev):

    -6.5708  -6.5708  -6.5708  -6.5706  -0.5524  -0.5523  -0.5522  -0.5520
    -0.5476  -0.5475  -0.5474  -0.5474  -0.1796  -0.1793  -0.1791  -0.1786
    -0.1589  -0.1586  -0.1583  -0.1578  -0.0735  -0.0734  -0.0733  -0.0731
     0.5858   0.5859   0.5859   0.5859   4.4972   4.4973   4.4973   4.4974
     4.7051   4.7051   4.7051   4.7052   9.0282   9.0282   9.0282   9.0283
    12.3237  12.3237  12.3238  12.3238  12.5658  12.5658  12.5658  12.5658
    14.2891  14.2892  14.2892  14.2892

          k = 0.5000 0.5000 0.4000 (  5404 PWs)   bands (ev):

    -6.5695  -6.5695  -6.5695  -6.5693  -0.5526  -0.5525  -0.5524  -0.5522
    -0.5495  -0.5493  -0.5493  -0.5493  -0.1682  -0.1679  -0.1677  -0.1672
    -0.1569  -0.1566  -0.1563  -0.1558  -0.0539  -0.0537  -0.0536  -0.0534
     0.5225   0.5225   0.5226   0.5226   4.5708   4.5709   4.5709   4.5710
     4.7069   4.7069   4.7070   4.7070   8.9524   8.9524   8.9524   8.9525
    12.3695  12.3695  12.3696  12.3696  12.5298  12.5298  12.5298  12.5299
    14.3134  14.3135  14.3135  14.3135

          k = 0.5000 0.5000 0.4250 (  5404 PWs)   bands (ev):

    -6.5685  -6.5685  -6.5685  -6.5683  -0.5528  -0.5527  -0.5526  -0.5523
    -0.5510  -0.5508  -0.5508  -0.5507  -0.1607  -0.1604  -0.1602  -0.1597
    -0.1553  -0.1550  -0.1547  -0.1542  -0.0315  -0.0313  -0.0312  -0.0310
     0.4674   0.4675   0.4675   0.4675   4.6304   4.6304   4.6305   4.6305
     4.7084   4.7084   4.7085   4.7085   8.8910   8.8911   8.8911   8.8912
    12.4091  12.4091  12.4091  12.4091  12.5018  12.5018  12.5018  12.5019
    14.3263  14.3264  14.3264  14.3264

          k = 0.5000 0.5000 0.4500 (  5408 PWs)   bands (ev):

    -6.5677  -6.5677  -6.5677  -6.5675  -0.5529  -0.5528  -0.5527  -0.5524
    -0.5520  -0.5518  -0.5518  -0.5517  -0.1562  -0.1560  -0.1558  -0.1553
    -0.1541  -0.1538  -0.1535  -0.1530  -0.0100  -0.0098  -0.0097  -0.0096
     0.4233   0.4234   0.4234   0.4234   4.6743   4.6744   4.6744   4.6745
     4.7095   4.7095   4.7096   4.7096   8.8457   8.8458   8.8458   8.8459
    12.4394  12.4394  12.4394  12.4395  12.4817  12.4817  12.4817  12.4818
    14.3317  14.3318  14.3318  14.3318

          k = 0.5000 0.5000 0.4750 (  5400 PWs)   bands (ev):

    -6.5673  -6.5673  -6.5672  -6.5671  -0.5530  -0.5529  -0.5529  -0.5527
    -0.5525  -0.5524  -0.5523  -0.5523  -0.1538  -0.1536  -0.1534  -0.1534
    -0.1531  -0.1528  -0.1528  -0.1523   0.0061   0.0063   0.0064   0.0065
     0.3940   0.3940   0.3940   0.3941   4.7013   4.7013   4.7014   4.7014
     4.7102   4.7102   4.7102   4.7103   8.8179   8.8180   8.8180   8.8181
    12.4588  12.4588  12.4588  12.4589  12.4695  12.4695  12.4696  12.4696
    14.3333  14.3333  14.3333  14.3333

          k = 0.5000 0.5000 0.5000 (  5400 PWs)   bands (ev):

    -6.5671  -6.5671  -6.5671  -6.5669  -0.5531  -0.5530  -0.5530  -0.5529
    -0.5527  -0.5525  -0.5525  -0.5524  -0.1532  -0.1531  -0.1529  -0.1528
    -0.1527  -0.1525  -0.1521  -0.1520   0.0121   0.0123   0.0124   0.0125
     0.3835   0.3836   0.3836   0.3836   4.7103   4.7104   4.7104   4.7104
     4.7104   4.7105   4.7105   4.7106   8.8086   8.8087   8.8087   8.8088
    12.4654  12.4654  12.4654  12.4655  12.4655  12.4655  12.4655  12.4655
    14.3335  14.3335  14.3335  14.3335

     Writing output data file ZnS_relax.save/
 
     init_run     :      0.20s CPU      0.26s WALL (       1 calls)
     electrons    :     48.71s CPU     51.30s WALL (       1 calls)

     Called by init_run:
     wfcinit      :      0.00s CPU      0.00s WALL (       1 calls)
     wfcinit:atom :      0.01s CPU      0.01s WALL (     122 calls)
     wfcinit:wfcr :      2.33s CPU      2.47s WALL (     122 calls)
     potinit      :      0.02s CPU      0.03s WALL (       1 calls)
     hinit0       :      0.06s CPU      0.10s WALL (       1 calls)

     Called by electrons:
     c_bands      :     48.71s CPU     51.29s WALL (       1 calls)
     v_of_rho     :      0.01s CPU      0.01s WALL (       1 calls)
     v_h          :      0.00s CPU      0.00s WALL (       1 calls)
     v_xc         :      0.01s CPU      0.01s WALL (       1 calls)
     newd         :      0.03s CPU      0.04s WALL (       1 calls)

     Called by c_bands:
     init_us_2    :      0.01s CPU      0.02s WALL (     122 calls)
     cegterg      :     46.02s CPU     48.30s WALL (     175 calls)

     Called by sum_band:

     Called by *egterg:
     h_psi        :     23.24s CPU     24.20s WALL (    2705 calls)
     s_psi        :      0.34s CPU      0.35s WALL (    2705 calls)
     g_psi        :      0.07s CPU      0.07s WALL (    2408 calls)
     cdiaghg      :     20.38s CPU     21.65s WALL (    2530 calls)
     cegterg:over :      1.98s CPU      2.06s WALL (    2408 calls)
     cegterg:upda :      1.13s CPU      1.17s WALL (    2408 calls)
     cegterg:last :      0.77s CPU      0.80s WALL (     490 calls)
     cdiaghg:chol :      1.80s CPU      2.08s WALL (    2530 calls)
     cdiaghg:inve :      1.16s CPU      1.24s WALL (    2530 calls)
     cdiaghg:para :      1.64s CPU      1.82s WALL (    5060 calls)

     Called by h_psi:
     h_psi:pot    :     23.19s CPU     24.15s WALL (    2705 calls)
     h_psi:calbec :      1.01s CPU      1.08s WALL (    2705 calls)
     vloc_psi     :     21.75s CPU     22.63s WALL (    2705 calls)
     add_vuspsi   :      0.40s CPU      0.42s WALL (    2705 calls)

     General routines
     calbec       :      1.00s CPU      1.07s WALL (    2705 calls)
     fft          :      0.01s CPU      0.02s WALL (      13 calls)
     ffts         :      0.00s CPU      0.00s WALL (       1 calls)
     fftw         :     20.95s CPU     21.80s WALL (  152982 calls)
     interpolate  :      0.00s CPU      0.00s WALL (       1 calls)
     davcio       :      0.03s CPU      0.10s WALL (     244 calls)
 
     Parallel routines
     fft_scatt_xy :      1.66s CPU      1.75s WALL (  152996 calls)
     fft_scatt_yz :     13.61s CPU     14.13s WALL (  152996 calls)
 
     PWSCF        :     50.97s CPU     56.67s WALL

 
   This run was terminated on:  15:58: 3  31Mar2023            

=------------------------------------------------------------------------------=
   JOB DONE.
=------------------------------------------------------------------------------=
