
     Program BANDS v.6.4.1 starts on 31Mar2023 at 16:21:47 

     This program is part of the open-source Quantum ESPRESSO suite
     for quantum simulation of materials; please cite
         "P. Giannozzi et al., J. Phys.:Condens. Matter 21 395502 (2009);
         "P. Giannozzi et al., J. Phys.:Condens. Matter 29 465901 (2017);
          URL http://www.quantum-espresso.org", 
     in publications or presentations arising from this work. More details at
     http://www.quantum-espresso.org/quote

     Parallel version (MPI & OpenMP), running on       4 processor cores
     Number of MPI processes:                 4
     Threads/MPI process:                     1

     MPI processes distributed on     1 nodes
     R & G space division:  proc/nbgrp/npool/nimage =       4

     Reading data from directory:
     /scratch/22gg91j21/spha/pseudo/output/ZnS_relax.save/

     IMPORTANT: XC functional enforced from input :
     Exchange-correlation      = PBE ( 1  4  3  4 0 0)
     Any further DFT definition will be discarded
     Please, verify this is what you really want

               file Zn.pbe-dnl-rrkjus_psl.1.0.0.UPF: wavefunction(s)  3D renormalized
 
     Parallelization info
     --------------------
     sticks:   dense  smooth     PW     G-vecs:    dense   smooth      PW
     Min         996     370    109                47296    10732    1690
     Max         997     371    110                47301    10735    1691
     Sum        3985    1481    437               189191    42931    6763
 
     high-symmetry point:  0.0000 0.0000 0.0000   x coordinate   0.0000
     high-symmetry point:  0.0000 0.5000 0.0000   x coordinate   0.5000
     high-symmetry point:  0.5000 0.5000 0.0000   x coordinate   1.0000
     high-symmetry point:  0.0000 0.0000 0.0000   x coordinate   1.7071
     high-symmetry point:  0.5000 0.5000 0.5000   x coordinate   2.5731
     high-symmetry point:  0.0000 0.5000 0.0000   x coordinate   3.2802
     high-symmetry point:  0.5000 0.5000 0.0000   x coordinate   3.2802
     high-symmetry point:  0.5000 0.5000 0.5000   x coordinate   3.7802

     Plottable bands (eV) written to file zns_bands.dat.gnu
     Bands written to file zns_bands.dat

 **************************************************************************

                    xk=(   0.00000,   0.00000,   0.00000  )

     point group T_d (-43m) 
     there are  5 classes
     the character table:

       E     8C3   3C2   6S4   6s_d 
A_1    1.00  1.00  1.00  1.00  1.00
A_2    1.00  1.00  1.00 -1.00 -1.00
E      2.00 -1.00  2.00  0.00  0.00
T_1    3.00  0.00 -1.00  1.00 -1.00
T_2    3.00  0.00 -1.00 -1.00  1.00

     the symmetry operations in each class and the name of the first element:

     E        1
                                                                 
     8C3      5    7    8    6   12    9   10   11
                                                                 
     3C2      2    3    4
                                                                 
     6S4     15   16   20   19   23   24
                                                                 
     6s_d    13   14   17   18   21   22
                                                                 

     Band symmetry, T_d (-43m)  point group:

     e(  1 -  1) =     -7.45840  eV     1   --> A_1  G_1  P_1  
     e(  2 -  3) =     -6.26757  eV     2   -->   ?
     e(  4 -  4) =     -6.26739  eV     1   -->   ?
     e(  5 -  5) =     -0.68435  eV     1   -->   ?
     e(  6 -  6) =     -0.68415  eV     1   -->   ?
     e(  7 -  7) =     -0.68402  eV     1   -->   ?
     e(  8 - 10) =     -0.66484  eV     3   --> T_2  G_15 P_4  
     e( 11 - 11) =     -0.33307  eV     1   -->   ?
     e( 12 - 12) =     -0.33292  eV     1   -->   ?
     e( 13 - 13) =     -0.33274  eV     1   -->   ?
     e( 14 - 14) =     -0.33259  eV     1   -->   ?
     e( 15 - 15) =     -0.33241  eV     1   -->   ?
     e( 16 - 16) =     -0.33227  eV     1   -->   ?
     e( 17 - 18) =     -0.18137  eV     2   --> E    G_12 P_3  
     e( 19 - 19) =     -0.10999  eV     1   -->   ?
     e( 20 - 20) =     -0.10969  eV     1   -->   ?
     e( 21 - 21) =     -0.10949  eV     1   -->   ?
     e( 22 - 24) =      0.02463  eV     3   --> T_2  G_15 P_4  
     e( 25 - 27) =      1.08086  eV     3   --> A_1  G_1  P_1  
     e( 25 - 27) =      1.08086  eV     3   --> E    G_12 P_3  
     e( 28 - 33) =      3.39767  eV     6   --> T_1  G_25 P_5  
     e( 28 - 33) =      3.39767  eV     6   --> T_2  G_15 P_4  
     e( 34 - 36) =      5.54941  eV     3   --> T_2  G_15 P_4  
     e( 37 - 37) =      7.55740  eV     1   --> A_1  G_1  P_1  
     e( 38 - 40) =      8.99916  eV     3   --> T_2  G_15 P_4  
     e( 41 - 43) =      9.61819  eV     3   --> A_1  G_1  P_1  
     e( 41 - 43) =      9.61819  eV     3   --> E    G_12 P_3  
     e( 44 - 46) =     11.93957  eV     3   --> T_2  G_15 P_4  
     e( 47 - 49) =     16.36036  eV     3   --> A_1  G_1  P_1  
     e( 47 - 49) =     16.36036  eV     3   --> E    G_12 P_3  
     e( 50 - 51) =     17.17477  eV     2   --> E    G_12 P_3  
     e( 52 - 52) =     17.29853  eV     1   --> A_1  G_1  P_1  

 **************************************************************************

 **************************************************************************

                    xk=(   0.00000,   0.02500,   0.00000  )

     point group C_2v (mm2) 
     there are  4 classes
     the character table:

       E     C2    s_v   s_v' 
A_1    1.00  1.00  1.00  1.00
A_2    1.00  1.00 -1.00 -1.00
B_1    1.00 -1.00  1.00 -1.00
B_2    1.00 -1.00 -1.00  1.00

     the symmetry operations in each class and the name of the first element:

     E        1
                                                                 
     C2       2
                                                                 
     s_v      4
                                                                 
     s_v'     3
                                                                 

     Band symmetry, C_2v (mm2)  point group:

     e(  1 -  1) =     -7.45685  eV     1   --> A_1  D_1  S_1  
     e(  2 -  2) =     -6.26972  eV     1   -->   ?
     e(  3 -  3) =     -6.26753  eV     1   --> B_2  D_4  S_4  
     e(  4 -  4) =     -6.26740  eV     1   -->   ?
     e(  5 -  5) =     -0.68438  eV     1   -->   ?
     e(  6 -  6) =     -0.68346  eV     1   -->   ?
     e(  7 -  7) =     -0.68319  eV     1   -->   ?
     e(  8 -  8) =     -0.66505  eV     1   --> A_1  D_1  S_1  
     e(  9 - 10) =     -0.66445  eV     2   --> B_1  D_3  S_3  
     e(  9 - 10) =     -0.66445  eV     2   --> B_2  D_4  S_4  
     e( 11 - 11) =     -0.33359  eV     1   -->   ?
     e( 12 - 12) =     -0.33344  eV     1   -->   ?
     e( 13 - 13) =     -0.33319  eV     1   -->   ?
     e( 14 - 14) =     -0.33304  eV     1   -->   ?
     e( 15 - 15) =     -0.33292  eV     1   -->   ?
     e( 16 - 16) =     -0.33212  eV     1   --> A_2  D_2  S_2  
     e( 17 - 17) =     -0.18154  eV     1   --> A_1  D_1  S_1  
     e( 18 - 18) =     -0.18126  eV     1   --> A_2  D_2  S_2  
     e( 19 - 19) =     -0.11025  eV     1   -->   ?
     e( 20 - 20) =     -0.10988  eV     1   -->   ?
     e( 21 - 21) =     -0.10975  eV     1   -->   ?
     e( 22 - 22) =      0.02127  eV     1   --> A_1  D_1  S_1  
     e( 23 - 24) =      0.02576  eV     2   --> B_1  D_3  S_3  
     e( 23 - 24) =      0.02576  eV     2   --> B_2  D_4  S_4  
     e( 25 - 26) =      1.08074  eV     2   --> A_1  D_1  S_1  
     e( 25 - 26) =      1.08074  eV     2   --> A_2  D_2  S_2  
     e( 27 - 27) =      1.08933  eV     1   --> A_1  D_1  S_1  
     e( 28 - 31) =      3.39428  eV     4   --> A_1  D_1  S_1  
     e( 28 - 31) =      3.39428  eV     4   --> A_2  D_2  S_2  
     e( 28 - 31) =      3.39428  eV     4   --> B_1  D_3  S_3  
     e( 28 - 31) =      3.39428  eV     4   --> B_2  D_4  S_4  
     e( 32 - 33) =      3.40053  eV     2   --> B_1  D_3  S_3  
     e( 32 - 33) =      3.40053  eV     2   --> B_2  D_4  S_4  
     e( 34 - 34) =      5.53205  eV     1   --> A_1  D_1  S_1  
     e( 35 - 36) =      5.54499  eV     2   --> B_1  D_3  S_3  
     e( 35 - 36) =      5.54499  eV     2   --> B_2  D_4  S_4  
     e( 37 - 37) =      7.57630  eV     1   --> A_1  D_1  S_1  
     e( 38 - 38) =      9.00207  eV     1   --> A_1  D_1  S_1  
     e( 39 - 40) =      9.00846  eV     2   --> B_1  D_3  S_3  
     e( 39 - 40) =      9.00846  eV     2   --> B_2  D_4  S_4  
     e( 41 - 41) =      9.62095  eV     1   --> A_1  D_1  S_1  
     e( 42 - 43) =      9.62659  eV     2   --> A_1  D_1  S_1  
     e( 42 - 43) =      9.62659  eV     2   --> A_2  D_2  S_2  
     e( 44 - 44) =     11.93070  eV     1   --> A_1  D_1  S_1  
     e( 45 - 46) =     11.94613  eV     2   --> B_1  D_3  S_3  
     e( 45 - 46) =     11.94613  eV     2   --> B_2  D_4  S_4  
     e( 47 - 48) =     16.34156  eV     2   --> A_1  D_1  S_1  
     e( 47 - 48) =     16.34156  eV     2   --> A_2  D_2  S_2  
     e( 49 - 49) =     16.34688  eV     1   --> A_1  D_1  S_1  
     e( 50 - 50) =     17.14878  eV     1   --> A_1  D_1  S_1  
     e( 51 - 51) =     17.17673  eV     1   --> A_2  D_2  S_2  
     e( 52 - 52) =     17.31143  eV     1   -->   ?

 **************************************************************************

 **************************************************************************

                    xk=(   0.00000,   0.05000,   0.00000  )

     Band symmetry, C_2v (mm2)  point group:

     e(  1 -  1) =     -7.45221  eV     1   --> A_1  D_1  S_1  
     e(  2 -  2) =     -6.27634  eV     1   --> A_1  D_1  S_1  
     e(  3 -  3) =     -6.26742  eV     1   --> B_2  D_4  S_4  
     e(  4 -  4) =     -6.26729  eV     1   --> B_1  D_3  S_3  
     e(  5 -  5) =     -0.68484  eV     1   -->   ?
     e(  6 -  6) =     -0.68082  eV     1   -->   ?
     e(  7 -  7) =     -0.68054  eV     1   --> A_1  D_1  S_1  
     e(  8 -  8) =     -0.66568  eV     1   --> A_1  D_1  S_1  
     e(  9 - 10) =     -0.66330  eV     2   --> B_1  D_3  S_3  
     e(  9 - 10) =     -0.66330  eV     2   --> B_2  D_4  S_4  
     e( 11 - 12) =     -0.33552  eV     2   -->   ?
     e( 13 - 14) =     -0.33464  eV     2   -->   ?
     e( 15 - 15) =     -0.33245  eV     1   --> A_1  D_1  S_1  
     e( 16 - 16) =     -0.33165  eV     1   --> A_2  D_2  S_2  
     e( 17 - 17) =     -0.18207  eV     1   --> A_1  D_1  S_1  
     e( 18 - 18) =     -0.18093  eV     1   --> A_2  D_2  S_2  
     e( 19 - 19) =     -0.11095  eV     1   -->   ?
     e( 20 - 20) =     -0.11052  eV     1   -->   ?
     e( 21 - 21) =     -0.11018  eV     1   -->   ?
     e( 22 - 22) =      0.01159  eV     1   --> A_1  D_1  S_1  
     e( 23 - 24) =      0.02911  eV     2   --> B_1  D_3  S_3  
     e( 23 - 24) =      0.02911  eV     2   --> B_2  D_4  S_4  
     e( 25 - 26) =      1.08038  eV     2   --> A_1  D_1  S_1  
     e( 25 - 26) =      1.08038  eV     2   --> A_2  D_2  S_2  
     e( 27 - 27) =      1.11428  eV     1   --> A_1  D_1  S_1  
     e( 28 - 29) =      3.38420  eV     2   --> B_1  D_3  S_3  
     e( 28 - 29) =      3.38420  eV     2   --> B_2  D_4  S_4  
     e( 30 - 31) =      3.38491  eV     2   --> A_1  D_1  S_1  
     e( 30 - 31) =      3.38491  eV     2   --> A_2  D_2  S_2  
     e( 32 - 33) =      3.40890  eV     2   --> B_1  D_3  S_3  
     e( 32 - 33) =      3.40890  eV     2   --> B_2  D_4  S_4  
     e( 34 - 34) =      5.48186  eV     1   --> A_1  D_1  S_1  
     e( 35 - 36) =      5.53177  eV     2   --> B_1  D_3  S_3  
     e( 35 - 36) =      5.53177  eV     2   --> B_2  D_4  S_4  
     e( 37 - 37) =      7.63105  eV     1   --> A_1  D_1  S_1  
     e( 38 - 38) =      9.01114  eV     1   --> A_1  D_1  S_1  
     e( 39 - 40) =      9.03659  eV     2   --> B_1  D_3  S_3  
     e( 39 - 40) =      9.03659  eV     2   --> B_2  D_4  S_4  
     e( 41 - 41) =      9.62912  eV     1   --> A_1  D_1  S_1  
     e( 42 - 43) =      9.65178  eV     2   --> A_1  D_1  S_1  
     e( 42 - 43) =      9.65178  eV     2   --> A_2  D_2  S_2  
     e( 44 - 44) =     11.90439  eV     1   --> A_1  D_1  S_1  
     e( 45 - 46) =     11.96573  eV     2   --> B_1  D_3  S_3  
     e( 45 - 46) =     11.96573  eV     2   --> B_2  D_4  S_4  
     e( 47 - 48) =     16.28721  eV     2   --> A_1  D_1  S_1  
     e( 47 - 48) =     16.28721  eV     2   --> A_2  D_2  S_2  
     e( 49 - 49) =     16.30702  eV     1   --> A_1  D_1  S_1  
     e( 50 - 50) =     17.07282  eV     1   --> A_1  D_1  S_1  
     e( 51 - 51) =     17.18261  eV     1   --> A_2  D_2  S_2  
     e( 52 - 52) =     17.21652  eV     1   -->   ?

 **************************************************************************

 **************************************************************************

                    xk=(   0.00000,   0.07500,   0.00000  )

     Band symmetry, C_2v (mm2)  point group:

     e(  1 -  1) =     -7.44449  eV     1   --> A_1  D_1  S_1  
     e(  2 -  2) =     -6.28730  eV     1   --> A_1  D_1  S_1  
     e(  3 -  3) =     -6.26725  eV     1   --> B_2  D_4  S_4  
     e(  4 -  4) =     -6.26712  eV     1   --> B_1  D_3  S_3  
     e(  5 -  5) =     -0.68562  eV     1   --> A_1  D_1  S_1  
     e(  6 -  6) =     -0.67649  eV     1   --> A_2  D_2  S_2  
     e(  7 -  7) =     -0.67621  eV     1   --> A_1  D_1  S_1  
     e(  8 -  8) =     -0.66672  eV     1   --> A_1  D_1  S_1  
     e(  9 - 10) =     -0.66138  eV     2   --> B_1  D_3  S_3  
     e(  9 - 10) =     -0.66138  eV     2   --> B_2  D_4  S_4  
     e( 11 - 12) =     -0.33883  eV     2   --> B_1  D_3  S_3  
     e( 11 - 12) =     -0.33883  eV     2   --> B_2  D_4  S_4  
     e( 13 - 14) =     -0.33689  eV     2   --> B_1  D_3  S_3  
     e( 13 - 14) =     -0.33689  eV     2   --> B_2  D_4  S_4  
     e( 15 - 15) =     -0.33169  eV     1   --> A_1  D_1  S_1  
     e( 16 - 16) =     -0.33089  eV     1   --> A_2  D_2  S_2  
     e( 17 - 17) =     -0.18293  eV     1   --> A_1  D_1  S_1  
     e( 18 - 18) =     -0.18038  eV     1   --> A_2  D_2  S_2  
     e( 19 - 19) =     -0.11220  eV     1   -->   ?
     e( 20 - 20) =     -0.11178  eV     1   -->   ?
     e( 21 - 21) =     -0.11071  eV     1   -->   ?
     e( 22 - 22) =     -0.00337  eV     1   --> A_1  D_1  S_1  
     e( 23 - 24) =      0.03455  eV     2   --> B_1  D_3  S_3  
     e( 23 - 24) =      0.03455  eV     2   --> B_2  D_4  S_4  
     e( 25 - 26) =      1.07979  eV     2   --> A_1  D_1  S_1  
     e( 25 - 26) =      1.07979  eV     2   --> A_2  D_2  S_2  
     e( 27 - 27) =      1.15456  eV     1   --> A_1  D_1  S_1  
     e( 28 - 29) =      3.36775  eV     2   --> B_1  D_3  S_3  
     e( 28 - 29) =      3.36775  eV     2   --> B_2  D_4  S_4  
     e( 30 - 31) =      3.36931  eV     2   --> A_1  D_1  S_1  
     e( 30 - 31) =      3.36931  eV     2   --> A_2  D_2  S_2  
     e( 32 - 33) =      3.42282  eV     2   --> B_1  D_3  S_3  
     e( 32 - 33) =      3.42282  eV     2   --> B_2  D_4  S_4  
     e( 34 - 34) =      5.40367  eV     1   --> A_1  D_1  S_1  
     e( 35 - 36) =      5.50997  eV     2   --> B_1  D_3  S_3  
     e( 35 - 36) =      5.50997  eV     2   --> B_2  D_4  S_4  
     e( 37 - 37) =      7.71670  eV     1   --> A_1  D_1  S_1  
     e( 38 - 38) =      9.02618  eV     1   --> A_1  D_1  S_1  
     e( 39 - 40) =      9.08304  eV     2   --> B_1  D_3  S_3  
     e( 39 - 40) =      9.08304  eV     2   --> B_2  D_4  S_4  
     e( 41 - 41) =      9.64265  eV     1   --> A_1  D_1  S_1  
     e( 42 - 43) =      9.69321  eV     2   --> A_1  D_1  S_1  
     e( 42 - 43) =      9.69321  eV     2   --> A_2  D_2  S_2  
     e( 44 - 44) =     11.86155  eV     1   --> A_1  D_1  S_1  
     e( 45 - 46) =     11.99818  eV     2   --> B_1  D_3  S_3  
     e( 45 - 46) =     11.99818  eV     2   --> B_2  D_4  S_4  
     e( 47 - 48) =     16.20221  eV     2   --> A_1  D_1  S_1  
     e( 47 - 48) =     16.20221  eV     2   --> A_2  D_2  S_2  
     e( 49 - 49) =     16.24229  eV     1   --> A_1  D_1  S_1  
     e( 50 - 50) =     16.95335  eV     1   --> A_1  D_1  S_1  
     e( 51 - 52) =     17.06914  eV     2   --> B_1  D_3  S_3  
     e( 51 - 52) =     17.06914  eV     2   --> B_2  D_4  S_4  

 **************************************************************************

 **************************************************************************

                    xk=(   0.00000,   0.10000,   0.00000  )

     Band symmetry, C_2v (mm2)  point group:

     e(  1 -  1) =     -7.43373  eV     1   --> A_1  D_1  S_1  
     e(  2 -  2) =     -6.30249  eV     1   --> A_1  D_1  S_1  
     e(  3 -  3) =     -6.26702  eV     1   --> B_2  D_4  S_4  
     e(  4 -  4) =     -6.26689  eV     1   --> B_1  D_3  S_3  
     e(  5 -  5) =     -0.68673  eV     1   --> A_1  D_1  S_1  
     e(  6 -  6) =     -0.67055  eV     1   -->   ?
     e(  7 -  7) =     -0.67027  eV     1   --> A_1  D_1  S_1  
     e(  8 -  8) =     -0.66816  eV     1   -->   ?
     e(  9 - 10) =     -0.65868  eV     2   --> B_1  D_3  S_3  
     e(  9 - 10) =     -0.65868  eV     2   --> B_2  D_4  S_4  
     e( 11 - 12) =     -0.34353  eV     2   --> B_1  D_3  S_3  
     e( 11 - 12) =     -0.34353  eV     2   --> B_2  D_4  S_4  
     e( 13 - 14) =     -0.33996  eV     2   --> B_1  D_3  S_3  
     e( 13 - 14) =     -0.33996  eV     2   --> B_2  D_4  S_4  
     e( 15 - 15) =     -0.33054  eV     1   --> A_1  D_1  S_1  
     e( 16 - 16) =     -0.32975  eV     1   --> A_2  D_2  S_2  
     e( 17 - 17) =     -0.18410  eV     1   --> A_1  D_1  S_1  
     e( 18 - 18) =     -0.17962  eV     1   --> A_2  D_2  S_2  
     e( 19 - 19) =     -0.11397  eV     1   -->   ?
     e( 20 - 20) =     -0.11355  eV     1   -->   ?
     e( 21 - 21) =     -0.11147  eV     1   -->   ?
     e( 22 - 22) =     -0.02218  eV     1   --> A_1  D_1  S_1  
     e( 23 - 24) =      0.04190  eV     2   --> B_1  D_3  S_3  
     e( 23 - 24) =      0.04190  eV     2   --> B_2  D_4  S_4  
     e( 25 - 26) =      1.07897  eV     2   --> A_1  D_1  S_1  
     e( 25 - 26) =      1.07897  eV     2   --> A_2  D_2  S_2  
     e( 27 - 27) =      1.20860  eV     1   --> A_1  D_1  S_1  
     e( 28 - 29) =      3.34547  eV     2   --> B_1  D_3  S_3  
     e( 28 - 29) =      3.34547  eV     2   --> B_2  D_4  S_4  
     e( 30 - 31) =      3.34816  eV     2   --> A_1  D_1  S_1  
     e( 30 - 31) =      3.34816  eV     2   --> A_2  D_2  S_2  
     e( 32 - 33) =      3.44220  eV     2   --> B_1  D_3  S_3  
     e( 32 - 33) =      3.44220  eV     2   --> B_2  D_4  S_4  
     e( 34 - 34) =      5.30345  eV     1   --> A_1  D_1  S_1  
     e( 35 - 36) =      5.47992  eV     2   --> B_1  D_3  S_3  
     e( 35 - 36) =      5.47992  eV     2   --> B_2  D_4  S_4  
     e( 37 - 37) =      7.82707  eV     1   --> A_1  D_1  S_1  
     e( 38 - 38) =      9.04714  eV     1   --> A_1  D_1  S_1  
     e( 39 - 40) =      9.14722  eV     2   --> B_1  D_3  S_3  
     e( 39 - 40) =      9.14722  eV     2   --> B_2  D_4  S_4  
     e( 41 - 41) =      9.66133  eV     1   --> A_1  D_1  S_1  
     e( 42 - 43) =      9.75038  eV     2   --> A_1  D_1  S_1  
     e( 42 - 43) =      9.75038  eV     2   --> A_2  D_2  S_2  
     e( 44 - 44) =     11.80355  eV     1   --> A_1  D_1  S_1  
     e( 45 - 46) =     12.04326  eV     2   --> B_1  D_3  S_3  
     e( 45 - 46) =     12.04326  eV     2   --> B_2  D_4  S_4  
     e( 47 - 48) =     16.09196  eV     2   --> A_1  D_1  S_1  
     e( 47 - 48) =     16.09196  eV     2   --> A_2  D_2  S_2  
     e( 49 - 49) =     16.15504  eV     1   --> A_1  D_1  S_1  
     e( 50 - 50) =     16.79960  eV     1   --> A_1  D_1  S_1  
     e( 51 - 52) =     16.88140  eV     2   --> B_1  D_3  S_3  
     e( 51 - 52) =     16.88140  eV     2   --> B_2  D_4  S_4  

 **************************************************************************

 **************************************************************************

                    xk=(   0.00000,   0.12500,   0.00000  )

     Band symmetry, C_2v (mm2)  point group:

     e(  1 -  1) =     -7.41995  eV     1   --> A_1  D_1  S_1  
     e(  2 -  2) =     -6.32175  eV     1   --> A_1  D_1  S_1  
     e(  3 -  3) =     -6.26672  eV     1   --> B_2  D_4  S_4  
     e(  4 -  4) =     -6.26659  eV     1   --> B_1  D_3  S_3  
     e(  5 -  5) =     -0.68813  eV     1   --> A_1  D_1  S_1  
     e(  6 -  6) =     -0.66994  eV     1   --> A_1  D_1  S_1  
     e(  7 -  7) =     -0.66309  eV     1   --> A_2  D_2  S_2  
     e(  8 -  8) =     -0.66281  eV     1   --> A_1  D_1  S_1  
     e(  9 - 10) =     -0.65516  eV     2   --> B_1  D_3  S_3  
     e(  9 - 10) =     -0.65516  eV     2   --> B_2  D_4  S_4  
     e( 11 - 12) =     -0.34948  eV     2   --> B_1  D_3  S_3  
     e( 11 - 12) =     -0.34948  eV     2   --> B_2  D_4  S_4  
     e( 13 - 14) =     -0.34365  eV     2   --> B_1  D_3  S_3  
     e( 13 - 14) =     -0.34365  eV     2   --> B_2  D_4  S_4  
     e( 15 - 15) =     -0.32902  eV     1   --> A_1  D_1  S_1  
     e( 16 - 16) =     -0.32823  eV     1   --> A_2  D_2  S_2  
     e( 17 - 17) =     -0.18573  eV     1   --> A_1  D_1  S_1  
     e( 18 - 18) =     -0.17864  eV     1   --> A_2  D_2  S_2  
     e( 19 - 19) =     -0.11626  eV     1   -->   ?
     e( 20 - 20) =     -0.11584  eV     1   --> A_2  D_2  S_2  
     e( 21 - 21) =     -0.11245  eV     1   -->   ?
     e( 22 - 22) =     -0.04337  eV     1   --> A_1  D_1  S_1  
     e( 23 - 24) =      0.05098  eV     2   --> B_1  D_3  S_3  
     e( 23 - 24) =      0.05098  eV     2   --> B_2  D_4  S_4  
     e( 25 - 26) =      1.07793  eV     2   --> A_1  D_1  S_1  
     e( 25 - 26) =      1.07793  eV     2   --> A_2  D_2  S_2  
     e( 27 - 27) =      1.27470  eV     1   --> A_1  D_1  S_1  
     e( 28 - 29) =      3.31806  eV     2   --> B_1  D_3  S_3  
     e( 28 - 29) =      3.31806  eV     2   --> B_2  D_4  S_4  
     e( 30 - 31) =      3.32211  eV     2   --> A_1  D_1  S_1  
     e( 30 - 31) =      3.32211  eV     2   --> A_2  D_2  S_2  
     e( 32 - 33) =      3.46695  eV     2   --> B_1  D_3  S_3  
     e( 32 - 33) =      3.46695  eV     2   --> B_2  D_4  S_4  
     e( 34 - 34) =      5.18682  eV     1   --> A_1  D_1  S_1  
     e( 35 - 36) =      5.44205  eV     2   --> B_1  D_3  S_3  
     e( 35 - 36) =      5.44205  eV     2   --> B_2  D_4  S_4  
     e( 37 - 37) =      7.95621  eV     1   --> A_1  D_1  S_1  
     e( 38 - 38) =      9.07399  eV     1   --> A_1  D_1  S_1  
     e( 39 - 40) =      9.22843  eV     2   --> B_1  D_3  S_3  
     e( 39 - 40) =      9.22843  eV     2   --> B_2  D_4  S_4  
     e( 41 - 41) =      9.68495  eV     1   --> A_1  D_1  S_1  
     e( 42 - 43) =      9.82264  eV     2   --> A_1  D_1  S_1  
     e( 42 - 43) =      9.82264  eV     2   --> A_2  D_2  S_2  
     e( 44 - 44) =     11.73222  eV     1   --> A_1  D_1  S_1  
     e( 45 - 46) =     12.10050  eV     2   --> B_1  D_3  S_3  
     e( 45 - 46) =     12.10050  eV     2   --> B_2  D_4  S_4  
     e( 47 - 48) =     15.96164  eV     2   --> A_1  D_1  S_1  
     e( 47 - 48) =     15.96164  eV     2   --> A_2  D_2  S_2  
     e( 49 - 49) =     16.04821  eV     1   --> A_1  D_1  S_1  
     e( 50 - 50) =     16.61797  eV     1   --> A_1  D_1  S_1  
     e( 51 - 52) =     16.66365  eV     2   --> B_1  D_3  S_3  
     e( 51 - 52) =     16.66365  eV     2   --> B_2  D_4  S_4  

 **************************************************************************

 **************************************************************************

                    xk=(   0.00000,   0.15000,   0.00000  )

     Band symmetry, C_2v (mm2)  point group:

     e(  1 -  1) =     -7.40322  eV     1   --> A_1  D_1  S_1  
     e(  2 -  2) =     -6.34489  eV     1   --> A_1  D_1  S_1  
     e(  3 -  3) =     -6.26638  eV     1   --> B_2  D_4  S_4  
     e(  4 -  4) =     -6.26625  eV     1   --> B_1  D_3  S_3  
     e(  5 -  5) =     -0.68982  eV     1   --> A_1  D_1  S_1  
     e(  6 -  6) =     -0.67208  eV     1   --> A_1  D_1  S_1  
     e(  7 -  7) =     -0.65432  eV     1   --> A_2  D_2  S_2  
     e(  8 -  8) =     -0.65404  eV     1   --> A_1  D_1  S_1  
     e(  9 - 10) =     -0.65096  eV     2   --> B_1  D_3  S_3  
     e(  9 - 10) =     -0.65096  eV     2   --> B_2  D_4  S_4  
     e( 11 - 12) =     -0.35660  eV     2   --> B_1  D_3  S_3  
     e( 11 - 12) =     -0.35660  eV     2   --> B_2  D_4  S_4  
     e( 13 - 14) =     -0.34779  eV     2   --> B_1  D_3  S_3  
     e( 13 - 14) =     -0.34779  eV     2   --> B_2  D_4  S_4  
     e( 15 - 15) =     -0.32708  eV     1   --> A_1  D_1  S_1  
     e( 16 - 16) =     -0.32629  eV     1   --> A_2  D_2  S_2  
     e( 17 - 17) =     -0.18753  eV     1   --> A_1  D_1  S_1  
     e( 18 - 18) =     -0.17747  eV     1   --> A_2  D_2  S_2  
     e( 19 - 19) =     -0.11913  eV     1   -->   ?
     e( 20 - 20) =     -0.11872  eV     1   --> A_2  D_2  S_2  
     e( 21 - 21) =     -0.11363  eV     1   -->   ?
     e( 22 - 22) =     -0.06558  eV     1   --> A_1  D_1  S_1  
     e( 23 - 24) =      0.06148  eV     2   --> B_1  D_3  S_3  
     e( 23 - 24) =      0.06148  eV     2   --> B_2  D_4  S_4  
     e( 25 - 26) =      1.07668  eV     2   --> A_1  D_1  S_1  
     e( 25 - 26) =      1.07668  eV     2   --> A_2  D_2  S_2  
     e( 27 - 27) =      1.35123  eV     1   --> A_1  D_1  S_1  
     e( 28 - 29) =      3.28634  eV     2   --> B_1  D_3  S_3  
     e( 28 - 29) =      3.28634  eV     2   --> B_2  D_4  S_4  
     e( 30 - 31) =      3.29191  eV     2   --> A_1  D_1  S_1  
     e( 30 - 31) =      3.29191  eV     2   --> A_2  D_2  S_2  
     e( 32 - 33) =      3.49695  eV     2   --> B_1  D_3  S_3  
     e( 32 - 33) =      3.49695  eV     2   --> B_2  D_4  S_4  
     e( 34 - 34) =      5.05844  eV     1   --> A_1  D_1  S_1  
     e( 35 - 36) =      5.39688  eV     2   --> B_1  D_3  S_3  
     e( 35 - 36) =      5.39688  eV     2   --> B_2  D_4  S_4  
     e( 37 - 37) =      8.09907  eV     1   --> A_1  D_1  S_1  
     e( 38 - 38) =      9.10661  eV     1   --> A_1  D_1  S_1  
     e( 39 - 40) =      9.32565  eV     2   --> B_1  D_3  S_3  
     e( 39 - 40) =      9.32565  eV     2   --> B_2  D_4  S_4  
     e( 41 - 41) =      9.71317  eV     1   --> A_1  D_1  S_1  
     e( 42 - 43) =      9.90884  eV     2   --> A_1  D_1  S_1  
     e( 42 - 43) =      9.90884  eV     2   --> A_2  D_2  S_2  
     e( 44 - 44) =     11.64922  eV     1   --> A_1  D_1  S_1  
     e( 45 - 46) =     12.16919  eV     2   --> B_1  D_3  S_3  
     e( 45 - 46) =     12.16919  eV     2   --> B_2  D_4  S_4  
     e( 47 - 48) =     15.81530  eV     2   --> A_1  D_1  S_1  
     e( 47 - 48) =     15.81530  eV     2   --> A_2  D_2  S_2  
     e( 49 - 49) =     15.92505  eV     1   --> A_1  D_1  S_1  
     e( 50 - 50) =     16.42073  eV     1   --> A_1  D_1  S_1  
     e( 51 - 52) =     16.42426  eV     2   --> B_1  D_3  S_3  
     e( 51 - 52) =     16.42426  eV     2   --> B_2  D_4  S_4  

 **************************************************************************

 **************************************************************************

                    xk=(   0.00000,   0.17500,   0.00000  )

     Band symmetry, C_2v (mm2)  point group:

     e(  1 -  1) =     -7.38358  eV     1   --> A_1  D_1  S_1  
     e(  2 -  2) =     -6.37169  eV     1   --> A_1  D_1  S_1  
     e(  3 -  3) =     -6.26600  eV     1   --> B_2  D_4  S_4  
     e(  4 -  4) =     -6.26587  eV     1   --> B_1  D_3  S_3  
     e(  5 -  5) =     -0.69174  eV     1   --> A_1  D_1  S_1  
     e(  6 -  6) =     -0.67447  eV     1   --> A_1  D_1  S_1  
     e(  7 -  8) =     -0.64587  eV     2   --> B_1  D_3  S_3  
     e(  7 -  8) =     -0.64587  eV     2   --> B_2  D_4  S_4  
     e(  9 -  9) =     -0.64439  eV     1   --> A_2  D_2  S_2  
     e( 10 - 10) =     -0.64411  eV     1   --> A_1  D_1  S_1  
     e( 11 - 12) =     -0.36481  eV     2   --> B_1  D_3  S_3  
     e( 11 - 12) =     -0.36481  eV     2   --> B_2  D_4  S_4  
     e( 13 - 14) =     -0.35224  eV     2   --> B_1  D_3  S_3  
     e( 13 - 14) =     -0.35224  eV     2   --> B_2  D_4  S_4  
     e( 15 - 15) =     -0.32467  eV     1   --> A_1  D_1  S_1  
     e( 16 - 16) =     -0.32389  eV     1   --> A_2  D_2  S_2  
     e( 17 - 17) =     -0.18954  eV     1   --> A_1  D_1  S_1  
     e( 18 - 18) =     -0.17608  eV     1   --> A_2  D_2  S_2  
     e( 19 - 19) =     -0.12260  eV     1   -->   ?
     e( 20 - 20) =     -0.12219  eV     1   --> A_2  D_2  S_2  
     e( 21 - 21) =     -0.11500  eV     1   -->   ?
     e( 22 - 22) =     -0.08771  eV     1   --> A_1  D_1  S_1  
     e( 23 - 24) =      0.07313  eV     2   --> B_1  D_3  S_3  
     e( 23 - 24) =      0.07313  eV     2   --> B_2  D_4  S_4  
     e( 25 - 26) =      1.07524  eV     2   --> A_1  D_1  S_1  
     e( 25 - 26) =      1.07524  eV     2   --> A_2  D_2  S_2  
     e( 27 - 27) =      1.43679  eV     1   --> A_1  D_1  S_1  
     e( 28 - 29) =      3.25122  eV     2   --> B_1  D_3  S_3  
     e( 28 - 29) =      3.25122  eV     2   --> B_2  D_4  S_4  
     e( 30 - 31) =      3.25843  eV     2   --> A_1  D_1  S_1  
     e( 30 - 31) =      3.25843  eV     2   --> A_2  D_2  S_2  
     e( 32 - 33) =      3.53206  eV     2   --> B_1  D_3  S_3  
     e( 32 - 33) =      3.53206  eV     2   --> B_2  D_4  S_4  
     e( 34 - 34) =      4.92183  eV     1   --> A_1  D_1  S_1  
     e( 35 - 36) =      5.34503  eV     2   --> B_1  D_3  S_3  
     e( 35 - 36) =      5.34503  eV     2   --> B_2  D_4  S_4  
     e( 37 - 37) =      8.25160  eV     1   --> A_1  D_1  S_1  
     e( 38 - 38) =      9.14500  eV     1   --> A_1  D_1  S_1  
     e( 39 - 40) =      9.43787  eV     2   --> B_1  D_3  S_3  
     e( 39 - 40) =      9.43787  eV     2   --> B_2  D_4  S_4  
     e( 41 - 41) =      9.74554  eV     1   --> A_1  D_1  S_1  
     e( 42 - 43) =     10.00796  eV     2   --> A_1  D_1  S_1  
     e( 42 - 43) =     10.00796  eV     2   --> A_2  D_2  S_2  
     e( 44 - 44) =     11.55683  eV     1   --> A_1  D_1  S_1  
     e( 45 - 46) =     12.24959  eV     2   --> B_1  D_3  S_3  
     e( 45 - 46) =     12.24959  eV     2   --> B_2  D_4  S_4  
     e( 47 - 48) =     15.65635  eV     2   --> A_1  D_1  S_1  
     e( 47 - 48) =     15.65635  eV     2   --> A_2  D_2  S_2  
     e( 49 - 49) =     15.78893  eV     1   --> A_1  D_1  S_1  
     e( 50 - 51) =     16.16989  eV     2   --> B_1  D_3  S_3  
     e( 50 - 51) =     16.16989  eV     2   --> B_2  D_4  S_4  
     e( 52 - 52) =     16.21352  eV     1   --> A_1  D_1  S_1  

 **************************************************************************

 **************************************************************************

                    xk=(   0.00000,   0.20000,   0.00000  )

     Band symmetry, C_2v (mm2)  point group:

     e(  1 -  1) =     -7.36113  eV     1   --> A_1  D_1  S_1  
     e(  2 -  2) =     -6.40188  eV     1   --> A_1  D_1  S_1  
     e(  3 -  3) =     -6.26559  eV     1   --> B_2  D_4  S_4  
     e(  4 -  4) =     -6.26546  eV     1   --> B_1  D_3  S_3  
     e(  5 -  5) =     -0.69390  eV     1   --> A_1  D_1  S_1  
     e(  6 -  6) =     -0.67717  eV     1   --> A_1  D_1  S_1  
     e(  7 -  8) =     -0.64019  eV     2   --> B_1  D_3  S_3  
     e(  7 -  8) =     -0.64019  eV     2   --> B_2  D_4  S_4  
     e(  9 -  9) =     -0.63354  eV     1   --> A_2  D_2  S_2  
     e( 10 - 10) =     -0.63326  eV     1   --> A_1  D_1  S_1  
     e( 11 - 12) =     -0.37406  eV     2   --> B_1  D_3  S_3  
     e( 11 - 12) =     -0.37406  eV     2   --> B_2  D_4  S_4  
     e( 13 - 14) =     -0.35685  eV     2   --> B_1  D_3  S_3  
     e( 13 - 14) =     -0.35685  eV     2   --> B_2  D_4  S_4  
     e( 15 - 15) =     -0.32175  eV     1   --> A_1  D_1  S_1  
     e( 16 - 16) =     -0.32098  eV     1   --> A_2  D_2  S_2  
     e( 17 - 17) =     -0.19186  eV     1   --> A_1  D_1  S_1  
     e( 18 - 18) =     -0.17452  eV     1   --> A_2  D_2  S_2  
     e( 19 - 19) =     -0.12670  eV     1   -->   ?
     e( 20 - 20) =     -0.12629  eV     1   -->   ?
     e( 21 - 21) =     -0.11658  eV     1   -->   ?
     e( 22 - 22) =     -0.10896  eV     1   --> A_1  D_1  S_1  
     e( 23 - 24) =      0.08564  eV     2   --> B_1  D_3  S_3  
     e( 23 - 24) =      0.08564  eV     2   --> B_2  D_4  S_4  
     e( 25 - 26) =      1.07362  eV     2   --> A_1  D_1  S_1  
     e( 25 - 26) =      1.07362  eV     2   --> A_2  D_2  S_2  
     e( 27 - 27) =      1.53014  eV     1   --> A_1  D_1  S_1  
     e( 28 - 29) =      3.21368  eV     2   --> B_1  D_3  S_3  
     e( 28 - 29) =      3.21368  eV     2   --> B_2  D_4  S_4  
     e( 30 - 31) =      3.22258  eV     2   --> A_1  D_1  S_1  
     e( 30 - 31) =      3.22258  eV     2   --> A_2  D_2  S_2  
     e( 32 - 33) =      3.57210  eV     2   --> B_1  D_3  S_3  
     e( 32 - 33) =      3.57210  eV     2   --> B_2  D_4  S_4  
     e( 34 - 34) =      4.77960  eV     1   --> A_1  D_1  S_1  
     e( 35 - 36) =      5.28711  eV     2   --> B_1  D_3  S_3  
     e( 35 - 36) =      5.28711  eV     2   --> B_2  D_4  S_4  
     e( 37 - 37) =      8.41051  eV     1   --> A_1  D_1  S_1  
     e( 38 - 38) =      9.18892  eV     1   --> A_1  D_1  S_1  
     e( 39 - 40) =      9.56385  eV     2   --> B_1  D_3  S_3  
     e( 39 - 40) =      9.56385  eV     2   --> B_2  D_4  S_4  
     e( 41 - 41) =      9.78141  eV     1   --> A_1  D_1  S_1  
     e( 42 - 43) =     10.11873  eV     2   --> A_1  D_1  S_1  
     e( 42 - 43) =     10.11873  eV     2   --> A_2  D_2  S_2  
     e( 44 - 44) =     11.45641  eV     1   --> A_1  D_1  S_1  
     e( 45 - 46) =     12.33975  eV     2   --> B_1  D_3  S_3  
     e( 45 - 46) =     12.33975  eV     2   --> B_2  D_4  S_4  
     e( 47 - 48) =     15.48760  eV     2   --> A_1  D_1  S_1  
     e( 47 - 48) =     15.48760  eV     2   --> A_2  D_2  S_2  
     e( 49 - 49) =     15.64319  eV     1   --> A_1  D_1  S_1  
     e( 50 - 51) =     15.90555  eV     2   --> B_1  D_3  S_3  
     e( 50 - 51) =     15.90555  eV     2   --> B_2  D_4  S_4  
     e( 52 - 52) =     16.00049  eV     1   --> A_1  D_1  S_1  

 **************************************************************************

 **************************************************************************

                    xk=(   0.00000,   0.22500,   0.00000  )

     Band symmetry, C_2v (mm2)  point group:

     e(  1 -  1) =     -7.33594  eV     1   --> A_1  D_1  S_1  
     e(  2 -  2) =     -6.43519  eV     1   --> A_1  D_1  S_1  
     e(  3 -  3) =     -6.26516  eV     1   --> B_2  D_4  S_4  
     e(  4 -  4) =     -6.26503  eV     1   --> B_1  D_3  S_3  
     e(  5 -  5) =     -0.69617  eV     1   --> A_1  D_1  S_1  
     e(  6 -  6) =     -0.68009  eV     1   --> A_1  D_1  S_1  
     e(  7 -  8) =     -0.63379  eV     2   --> B_1  D_3  S_3  
     e(  7 -  8) =     -0.63379  eV     2   --> B_2  D_4  S_4  
     e(  9 -  9) =     -0.62200  eV     1   --> A_2  D_2  S_2  
     e( 10 - 10) =     -0.62173  eV     1   --> A_1  D_1  S_1  
     e( 11 - 12) =     -0.38414  eV     2   --> B_1  D_3  S_3  
     e( 11 - 12) =     -0.38414  eV     2   --> B_2  D_4  S_4  
     e( 13 - 14) =     -0.36147  eV     2   --> B_1  D_3  S_3  
     e( 13 - 14) =     -0.36147  eV     2   --> B_2  D_4  S_4  
     e( 15 - 15) =     -0.31819  eV     1   --> A_1  D_1  S_1  
     e( 16 - 16) =     -0.31742  eV     1   --> A_2  D_2  S_2  
     e( 17 - 17) =     -0.19439  eV     1   --> A_1  D_1  S_1  
     e( 18 - 18) =     -0.17278  eV     1   --> A_2  D_2  S_2  
     e( 19 - 19) =     -0.13139  eV     1   -->   ?
     e( 20 - 20) =     -0.13100  eV     1   -->   ?
     e( 21 - 21) =     -0.12867  eV     1   -->   ?
     e( 22 - 22) =     -0.11832  eV     1   --> A_2  D_2  S_2  
     e( 23 - 24) =      0.09873  eV     2   --> B_1  D_3  S_3  
     e( 23 - 24) =      0.09873  eV     2   --> B_2  D_4  S_4  
     e( 25 - 26) =      1.07186  eV     2   --> A_1  D_1  S_1  
     e( 25 - 26) =      1.07186  eV     2   --> A_2  D_2  S_2  
     e( 27 - 27) =      1.63028  eV     1   --> A_1  D_1  S_1  
     e( 28 - 29) =      3.17470  eV     2   --> B_1  D_3  S_3  
     e( 28 - 29) =      3.17470  eV     2   --> B_2  D_4  S_4  
     e( 30 - 31) =      3.18532  eV     2   --> A_1  D_1  S_1  
     e( 30 - 31) =      3.18532  eV     2   --> A_2  D_2  S_2  
     e( 32 - 33) =      3.61690  eV     2   --> B_1  D_3  S_3  
     e( 32 - 33) =      3.61690  eV     2   --> B_2  D_4  S_4  
     e( 34 - 34) =      4.63365  eV     1   --> A_1  D_1  S_1  
     e( 35 - 36) =      5.22380  eV     2   --> B_1  D_3  S_3  
     e( 35 - 36) =      5.22380  eV     2   --> B_2  D_4  S_4  
     e( 37 - 37) =      8.57313  eV     1   --> A_1  D_1  S_1  
     e( 38 - 38) =      9.23844  eV     1   --> A_1  D_1  S_1  
     e( 39 - 40) =      9.70237  eV     2   --> B_1  D_3  S_3  
     e( 39 - 40) =      9.70237  eV     2   --> B_2  D_4  S_4  
     e( 41 - 41) =      9.82017  eV     1   --> A_1  D_1  S_1  
     e( 42 - 43) =     10.23975  eV     2   --> A_1  D_1  S_1  
     e( 42 - 43) =     10.23975  eV     2   --> A_2  D_2  S_2  
     e( 44 - 44) =     11.34997  eV     1   --> A_1  D_1  S_1  
     e( 45 - 46) =     12.43972  eV     2   --> B_1  D_3  S_3  
     e( 45 - 46) =     12.43972  eV     2   --> B_2  D_4  S_4  
     e( 47 - 48) =     15.31158  eV     2   --> A_1  D_1  S_1  
     e( 47 - 48) =     15.31158  eV     2   --> A_2  D_2  S_2  
     e( 49 - 49) =     15.49117  eV     1   --> A_1  D_1  S_1  
     e( 50 - 51) =     15.63553  eV     2   --> B_1  D_3  S_3  
     e( 50 - 51) =     15.63553  eV     2   --> B_2  D_4  S_4  
     e( 52 - 52) =     15.78709  eV     1   --> A_1  D_1  S_1  

 **************************************************************************

 **************************************************************************

                    xk=(   0.00000,   0.25000,   0.00000  )

     Band symmetry, C_2v (mm2)  point group:

     e(  1 -  1) =     -7.30810  eV     1   --> A_1  D_1  S_1  
     e(  2 -  2) =     -6.47131  eV     1   --> A_1  D_1  S_1  
     e(  3 -  3) =     -6.26472  eV     1   --> B_2  D_4  S_4  
     e(  4 -  4) =     -6.26459  eV     1   --> B_1  D_3  S_3  
     e(  5 -  5) =     -0.69850  eV     1   --> A_1  D_1  S_1  
     e(  6 -  6) =     -0.68305  eV     1   --> A_1  D_1  S_1  
     e(  7 -  8) =     -0.62660  eV     2   --> B_1  D_3  S_3  
     e(  7 -  8) =     -0.62660  eV     2   --> B_2  D_4  S_4  
     e(  9 -  9) =     -0.61007  eV     1   --> A_2  D_2  S_2  
     e( 10 - 10) =     -0.60980  eV     1   --> A_1  D_1  S_1  
     e( 11 - 12) =     -0.39493  eV     2   --> B_1  D_3  S_3  
     e( 11 - 12) =     -0.39493  eV     2   --> B_2  D_4  S_4  
     e( 13 - 14) =     -0.36602  eV     2   --> B_1  D_3  S_3  
     e( 13 - 14) =     -0.36602  eV     2   --> B_2  D_4  S_4  
     e( 15 - 15) =     -0.31402  eV     1   --> A_1  D_1  S_1  
     e( 16 - 16) =     -0.31326  eV     1   --> A_2  D_2  S_2  
     e( 17 - 17) =     -0.19715  eV     1   --> A_1  D_1  S_1  
     e( 18 - 18) =     -0.17084  eV     1   --> A_2  D_2  S_2  
     e( 19 - 19) =     -0.14655  eV     1   -->   ?
     e( 20 - 20) =     -0.13673  eV     1   --> A_1  D_1  S_1  
     e( 21 - 21) =     -0.13633  eV     1   -->   ?
     e( 22 - 22) =     -0.12022  eV     1   --> A_2  D_2  S_2  
     e( 23 - 24) =      0.11207  eV     2   --> B_1  D_3  S_3  
     e( 23 - 24) =      0.11207  eV     2   --> B_2  D_4  S_4  
     e( 25 - 26) =      1.07000  eV     2   --> A_1  D_1  S_1  
     e( 25 - 26) =      1.07000  eV     2   --> A_2  D_2  S_2  
     e( 27 - 27) =      1.73638  eV     1   --> A_1  D_1  S_1  
     e( 28 - 29) =      3.13526  eV     2   --> B_1  D_3  S_3  
     e( 28 - 29) =      3.13526  eV     2   --> B_2  D_4  S_4  
     e( 30 - 31) =      3.14758  eV     2   --> A_1  D_1  S_1  
     e( 30 - 31) =      3.14758  eV     2   --> A_2  D_2  S_2  
     e( 32 - 33) =      3.66626  eV     2   --> B_1  D_3  S_3  
     e( 32 - 33) =      3.66626  eV     2   --> B_2  D_4  S_4  
     e( 34 - 34) =      4.48537  eV     1   --> A_1  D_1  S_1  
     e( 35 - 36) =      5.15581  eV     2   --> B_1  D_3  S_3  
     e( 35 - 36) =      5.15581  eV     2   --> B_2  D_4  S_4  
     e( 37 - 37) =      8.73711  eV     1   --> A_1  D_1  S_1  
     e( 38 - 38) =      9.29344  eV     1   --> A_1  D_1  S_1  
     e( 39 - 40) =      9.85195  eV     2   --> B_1  D_3  S_3  
     e( 39 - 40) =      9.85195  eV     2   --> B_2  D_4  S_4  
     e( 41 - 41) =      9.86082  eV     1   --> A_1  D_1  S_1  
     e( 42 - 43) =     10.36930  eV     2   --> A_1  D_1  S_1  
     e( 42 - 43) =     10.36930  eV     2   --> A_2  D_2  S_2  
     e( 44 - 44) =     11.23939  eV     1   --> A_1  D_1  S_1  
     e( 45 - 46) =     12.54913  eV     2   --> B_1  D_3  S_3  
     e( 45 - 46) =     12.54913  eV     2   --> B_2  D_4  S_4  
     e( 47 - 48) =     15.13049  eV     2   --> A_1  D_1  S_1  
     e( 47 - 48) =     15.13049  eV     2   --> A_2  D_2  S_2  
     e( 49 - 49) =     15.33612  eV     1   --> A_1  D_1  S_1  
     e( 50 - 51) =     15.36309  eV     2   --> B_1  D_3  S_3  
     e( 50 - 51) =     15.36309  eV     2   --> B_2  D_4  S_4  
     e( 52 - 52) =     15.57666  eV     1   --> A_1  D_1  S_1  

 **************************************************************************

 **************************************************************************

                    xk=(   0.00000,   0.27500,   0.00000  )

     Band symmetry, C_2v (mm2)  point group:

     e(  1 -  1) =     -7.27774  eV     1   --> A_1  D_1  S_1  
     e(  2 -  2) =     -6.50995  eV     1   --> A_1  D_1  S_1  
     e(  3 -  3) =     -6.26427  eV     1   --> B_2  D_4  S_4  
     e(  4 -  4) =     -6.26414  eV     1   --> B_1  D_3  S_3  
     e(  5 -  5) =     -0.70083  eV     1   --> A_1  D_1  S_1  
     e(  6 -  6) =     -0.68623  eV     1   --> A_1  D_1  S_1  
     e(  7 -  8) =     -0.61881  eV     2   --> B_1  D_3  S_3  
     e(  7 -  8) =     -0.61881  eV     2   --> B_2  D_4  S_4  
     e(  9 -  9) =     -0.59806  eV     1   --> A_2  D_2  S_2  
     e( 10 - 10) =     -0.59780  eV     1   --> A_1  D_1  S_1  
     e( 11 - 12) =     -0.40651  eV     2   --> B_1  D_3  S_3  
     e( 11 - 12) =     -0.40651  eV     2   --> B_2  D_4  S_4  
     e( 13 - 14) =     -0.37037  eV     2   --> B_1  D_3  S_3  
     e( 13 - 14) =     -0.37037  eV     2   --> B_2  D_4  S_4  
     e( 15 - 15) =     -0.30913  eV     1   --> A_1  D_1  S_1  
     e( 16 - 16) =     -0.30839  eV     1   --> A_2  D_2  S_2  
     e( 17 - 17) =     -0.19997  eV     1   --> A_1  D_1  S_1  
     e( 18 - 18) =     -0.16878  eV     1   --> A_2  D_2  S_2  
     e( 19 - 19) =     -0.16233  eV     1   --> A_1  D_1  S_1  
     e( 20 - 20) =     -0.14279  eV     1   --> A_1  D_1  S_1  
     e( 21 - 21) =     -0.14240  eV     1   --> A_2  D_2  S_2  
     e( 22 - 22) =     -0.12230  eV     1   --> A_2  D_2  S_2  
     e( 23 - 24) =      0.12538  eV     2   --> B_1  D_3  S_3  
     e( 23 - 24) =      0.12538  eV     2   --> B_2  D_4  S_4  
     e( 25 - 26) =      1.06806  eV     2   --> A_1  D_1  S_1  
     e( 25 - 26) =      1.06806  eV     2   --> A_2  D_2  S_2  
     e( 27 - 27) =      1.84769  eV     1   --> A_1  D_1  S_1  
     e( 28 - 29) =      3.09630  eV     2   --> B_1  D_3  S_3  
     e( 28 - 29) =      3.09630  eV     2   --> B_2  D_4  S_4  
     e( 30 - 31) =      3.11029  eV     2   --> A_1  D_1  S_1  
     e( 30 - 31) =      3.11029  eV     2   --> A_2  D_2  S_2  
     e( 32 - 33) =      3.71993  eV     2   --> B_1  D_3  S_3  
     e( 32 - 33) =      3.71993  eV     2   --> B_2  D_4  S_4  
     e( 34 - 34) =      4.33577  eV     1   --> A_1  D_1  S_1  
     e( 35 - 36) =      5.08376  eV     2   --> B_1  D_3  S_3  
     e( 35 - 36) =      5.08376  eV     2   --> B_2  D_4  S_4  
     e( 37 - 37) =      8.90031  eV     1   --> A_1  D_1  S_1  
     e( 38 - 38) =      9.35363  eV     1   --> A_1  D_1  S_1  
     e( 39 - 39) =      9.90213  eV     1   --> A_1  D_1  S_1  
     e( 40 - 41) =     10.01092  eV     2   --> B_1  D_3  S_3  
     e( 40 - 41) =     10.01092  eV     2   --> B_2  D_4  S_4  
     e( 42 - 43) =     10.50582  eV     2   --> A_1  D_1  S_1  
     e( 42 - 43) =     10.50582  eV     2   --> A_2  D_2  S_2  
     e( 44 - 44) =     11.12536  eV     1   --> A_1  D_1  S_1  
     e( 45 - 46) =     12.66682  eV     2   --> B_1  D_3  S_3  
     e( 45 - 46) =     12.66682  eV     2   --> B_2  D_4  S_4  
     e( 47 - 48) =     14.94680  eV     2   --> A_1  D_1  S_1  
     e( 47 - 48) =     14.94680  eV     2   --> A_2  D_2  S_2  
     e( 49 - 50) =     15.09078  eV     2   --> B_1  D_3  S_3  
     e( 49 - 50) =     15.09078  eV     2   --> B_2  D_4  S_4  
     e( 51 - 51) =     15.18115  eV     1   --> A_1  D_1  S_1  
     e( 52 - 52) =     15.37386  eV     1   --> A_1  D_1  S_1  

 **************************************************************************

 **************************************************************************

                    xk=(   0.00000,   0.30000,   0.00000  )

     Band symmetry, C_2v (mm2)  point group:

     e(  1 -  1) =     -7.24498  eV     1   --> A_1  D_1  S_1  
     e(  2 -  2) =     -6.55074  eV     1   --> A_1  D_1  S_1  
     e(  3 -  3) =     -6.26384  eV     1   --> B_2  D_4  S_4  
     e(  4 -  4) =     -6.26371  eV     1   --> B_1  D_3  S_3  
     e(  5 -  5) =     -0.70309  eV     1   --> A_1  D_1  S_1  
     e(  6 -  6) =     -0.68944  eV     1   --> A_1  D_1  S_1  
     e(  7 -  8) =     -0.61032  eV     2   --> B_1  D_3  S_3  
     e(  7 -  8) =     -0.61032  eV     2   --> B_2  D_4  S_4  
     e(  9 -  9) =     -0.58628  eV     1   --> A_2  D_2  S_2  
     e( 10 - 10) =     -0.58603  eV     1   --> A_1  D_1  S_1  
     e( 11 - 12) =     -0.41858  eV     2   --> B_1  D_3  S_3  
     e( 11 - 12) =     -0.41858  eV     2   --> B_2  D_4  S_4  
     e( 13 - 14) =     -0.37440  eV     2   --> B_1  D_3  S_3  
     e( 13 - 14) =     -0.37440  eV     2   --> B_2  D_4  S_4  
     e( 15 - 15) =     -0.30341  eV     1   --> A_1  D_1  S_1  
     e( 16 - 16) =     -0.30269  eV     1   --> A_2  D_2  S_2  
     e( 17 - 17) =     -0.20288  eV     1   --> A_1  D_1  S_1  
     e( 18 - 18) =     -0.17593  eV     1   --> A_1  D_1  S_1  
     e( 19 - 19) =     -0.16663  eV     1   --> A_2  D_2  S_2  
     e( 20 - 20) =     -0.14955  eV     1   --> A_1  D_1  S_1  
     e( 21 - 21) =     -0.14916  eV     1   --> A_2  D_2  S_2  
     e( 22 - 22) =     -0.12451  eV     1   --> A_2  D_2  S_2  
     e( 23 - 24) =      0.13835  eV     2   --> B_1  D_3  S_3  
     e( 23 - 24) =      0.13835  eV     2   --> B_2  D_4  S_4  
     e( 25 - 26) =      1.06611  eV     2   --> A_1  D_1  S_1  
     e( 25 - 26) =      1.06611  eV     2   --> A_2  D_2  S_2  
     e( 27 - 27) =      1.96367  eV     1   --> A_1  D_1  S_1  
     e( 28 - 29) =      3.05874  eV     2   --> B_1  D_3  S_3  
     e( 28 - 29) =      3.05874  eV     2   --> B_2  D_4  S_4  
     e( 30 - 31) =      3.07433  eV     2   --> A_1  D_1  S_1  
     e( 30 - 31) =      3.07433  eV     2   --> A_2  D_2  S_2  
     e( 32 - 33) =      3.77772  eV     2   --> B_1  D_3  S_3  
     e( 32 - 33) =      3.77772  eV     2   --> B_2  D_4  S_4  
     e( 34 - 34) =      4.18561  eV     1   --> A_1  D_1  S_1  
     e( 35 - 36) =      5.00837  eV     2   --> B_1  D_3  S_3  
     e( 35 - 36) =      5.00837  eV     2   --> B_2  D_4  S_4  
     e( 37 - 37) =      9.06065  eV     1   --> A_1  D_1  S_1  
     e( 38 - 38) =      9.41890  eV     1   --> A_1  D_1  S_1  
     e( 39 - 39) =      9.94280  eV     1   --> A_1  D_1  S_1  
     e( 40 - 41) =     10.17750  eV     2   --> B_1  D_3  S_3  
     e( 40 - 41) =     10.17750  eV     2   --> B_2  D_4  S_4  
     e( 42 - 43) =     10.64702  eV     2   --> A_1  D_1  S_1  
     e( 42 - 43) =     10.64702  eV     2   --> A_2  D_2  S_2  
     e( 44 - 44) =     11.00946  eV     1   --> A_1  D_1  S_1  
     e( 45 - 46) =     12.79253  eV     2   --> B_1  D_3  S_3  
     e( 45 - 46) =     12.79253  eV     2   --> B_2  D_4  S_4  
     e( 47 - 48) =     14.76297  eV     2   --> A_1  D_1  S_1  
     e( 47 - 48) =     14.76297  eV     2   --> A_2  D_2  S_2  
     e( 49 - 50) =     14.82166  eV     2   --> B_1  D_3  S_3  
     e( 49 - 50) =     14.82166  eV     2   --> B_2  D_4  S_4  
     e( 51 - 51) =     15.02945  eV     1   --> A_1  D_1  S_1  
     e( 52 - 52) =     15.18095  eV     1   --> A_1  D_1  S_1  

 **************************************************************************

 **************************************************************************

                    xk=(   0.00000,   0.32500,   0.00000  )

     Band symmetry, C_2v (mm2)  point group:

     e(  1 -  1) =     -7.20995  eV     1   --> A_1  D_1  S_1  
     e(  2 -  2) =     -6.59338  eV     1   --> A_1  D_1  S_1  
     e(  3 -  3) =     -6.26343  eV     1   --> B_2  D_4  S_4  
     e(  4 -  4) =     -6.26331  eV     1   --> B_1  D_3  S_3  
     e(  5 -  5) =     -0.70517  eV     1   --> A_1  D_1  S_1  
     e(  6 -  6) =     -0.69264  eV     1   --> A_1  D_1  S_1  
     e(  7 -  8) =     -0.60121  eV     2   --> B_1  D_3  S_3  
     e(  7 -  8) =     -0.60121  eV     2   --> B_2  D_4  S_4  
     e(  9 -  9) =     -0.57505  eV     1   --> A_2  D_2  S_2  
     e( 10 - 10) =     -0.57481  eV     1   --> A_1  D_1  S_1  
     e( 11 - 12) =     -0.43109  eV     2   --> B_1  D_3  S_3  
     e( 11 - 12) =     -0.43109  eV     2   --> B_2  D_4  S_4  
     e( 13 - 14) =     -0.37817  eV     2   --> B_1  D_3  S_3  
     e( 13 - 14) =     -0.37817  eV     2   --> B_2  D_4  S_4  
     e( 15 - 15) =     -0.29686  eV     1   --> A_1  D_1  S_1  
     e( 16 - 16) =     -0.29615  eV     1   --> A_2  D_2  S_2  
     e( 17 - 17) =     -0.20578  eV     1   --> A_1  D_1  S_1  
     e( 18 - 18) =     -0.18739  eV     1   --> A_1  D_1  S_1  
     e( 19 - 19) =     -0.16428  eV     1   -->   ?
     e( 20 - 20) =     -0.15703  eV     1   -->   ?
     e( 21 - 21) =     -0.15665  eV     1   --> A_2  D_2  S_2  
     e( 22 - 22) =     -0.12685  eV     1   --> A_2  D_2  S_2  
     e( 23 - 24) =      0.15064  eV     2   --> B_1  D_3  S_3  
     e( 23 - 24) =      0.15064  eV     2   --> B_2  D_4  S_4  
     e( 25 - 25) =      1.06419  eV     1   --> A_1  D_1  S_1  
     e( 26 - 26) =      1.06429  eV     1   --> A_2  D_2  S_2  
     e( 27 - 27) =      2.08379  eV     1   --> A_1  D_1  S_1  
     e( 28 - 29) =      3.02343  eV     2   --> B_1  D_3  S_3  
     e( 28 - 29) =      3.02343  eV     2   --> B_2  D_4  S_4  
     e( 30 - 31) =      3.04052  eV     2   --> A_1  D_1  S_1  
     e( 30 - 31) =      3.04052  eV     2   --> A_2  D_2  S_2  
     e( 32 - 33) =      3.83936  eV     2   --> B_1  D_3  S_3  
     e( 32 - 33) =      3.83936  eV     2   --> B_2  D_4  S_4  
     e( 34 - 34) =      4.03545  eV     1   --> A_1  D_1  S_1  
     e( 35 - 36) =      4.93025  eV     2   --> B_1  D_3  S_3  
     e( 35 - 36) =      4.93025  eV     2   --> B_2  D_4  S_4  
     e( 37 - 37) =      9.21603  eV     1   --> A_1  D_1  S_1  
     e( 38 - 38) =      9.48913  eV     1   --> A_1  D_1  S_1  
     e( 39 - 39) =      9.98104  eV     1   --> A_1  D_1  S_1  
     e( 40 - 41) =     10.34933  eV     2   --> B_1  D_3  S_3  
     e( 40 - 41) =     10.34933  eV     2   --> B_2  D_4  S_4  
     e( 42 - 43) =     10.79042  eV     2   --> A_1  D_1  S_1  
     e( 42 - 43) =     10.79042  eV     2   --> A_2  D_2  S_2  
     e( 44 - 44) =     10.89269  eV     1   --> A_1  D_1  S_1  
     e( 45 - 46) =     12.92554  eV     2   --> B_1  D_3  S_3  
     e( 45 - 46) =     12.92554  eV     2   --> B_2  D_4  S_4  
     e( 47 - 48) =     14.55844  eV     2   --> B_1  D_3  S_3  
     e( 47 - 48) =     14.55844  eV     2   --> B_2  D_4  S_4  
     e( 49 - 50) =     14.58117  eV     2   --> A_1  D_1  S_1  
     e( 49 - 50) =     14.58117  eV     2   --> A_2  D_2  S_2  
     e( 51 - 51) =     14.88425  eV     1   --> A_1  D_1  S_1  
     e( 52 - 52) =     15.00130  eV     1   --> A_1  D_1  S_1  

 **************************************************************************

 **************************************************************************

                    xk=(   0.00000,   0.35000,   0.00000  )

     Band symmetry, C_2v (mm2)  point group:

     e(  1 -  1) =     -7.17280  eV     1   --> A_1  D_1  S_1  
     e(  2 -  2) =     -6.63752  eV     1   --> A_1  D_1  S_1  
     e(  3 -  3) =     -6.26305  eV     1   --> B_2  D_4  S_4  
     e(  4 -  4) =     -6.26293  eV     1   --> B_1  D_3  S_3  
     e(  5 -  5) =     -0.70701  eV     1   --> A_1  D_1  S_1  
     e(  6 -  6) =     -0.69575  eV     1   --> A_1  D_1  S_1  
     e(  7 -  8) =     -0.59150  eV     2   --> B_1  D_3  S_3  
     e(  7 -  8) =     -0.59150  eV     2   --> B_2  D_4  S_4  
     e(  9 -  9) =     -0.56468  eV     1   --> A_2  D_2  S_2  
     e( 10 - 10) =     -0.56446  eV     1   --> A_1  D_1  S_1  
     e( 11 - 12) =     -0.44391  eV     2   --> B_1  D_3  S_3  
     e( 11 - 12) =     -0.44391  eV     2   --> B_2  D_4  S_4  
     e( 13 - 14) =     -0.38150  eV     2   --> B_1  D_3  S_3  
     e( 13 - 14) =     -0.38150  eV     2   --> B_2  D_4  S_4  
     e( 15 - 15) =     -0.28941  eV     1   --> A_1  D_1  S_1  
     e( 16 - 16) =     -0.28872  eV     1   --> A_2  D_2  S_2  
     e( 17 - 17) =     -0.20861  eV     1   --> A_1  D_1  S_1  
     e( 18 - 18) =     -0.19687  eV     1   --> A_1  D_1  S_1  
     e( 19 - 19) =     -0.16521  eV     1   -->   ?
     e( 20 - 20) =     -0.16483  eV     1   -->   ?
     e( 21 - 21) =     -0.16182  eV     1   -->   ?
     e( 22 - 22) =     -0.12929  eV     1   --> A_2  D_2  S_2  
     e( 23 - 24) =      0.16202  eV     2   --> B_1  D_3  S_3  
     e( 23 - 24) =      0.16202  eV     2   --> B_2  D_4  S_4  
     e( 25 - 25) =      1.06236  eV     1   --> A_1  D_1  S_1  
     e( 26 - 26) =      1.06248  eV     1   --> A_2  D_2  S_2  
     e( 27 - 27) =      2.20765  eV     1   --> A_1  D_1  S_1  
     e( 28 - 29) =      2.99113  eV     2   --> B_1  D_3  S_3  
     e( 28 - 29) =      2.99113  eV     2   --> B_2  D_4  S_4  
     e( 30 - 31) =      3.00961  eV     2   --> A_1  D_1  S_1  
     e( 30 - 31) =      3.00961  eV     2   --> A_2  D_2  S_2  
     e( 32 - 32) =      3.88572  eV     1   --> A_1  D_1  S_1  
     e( 33 - 34) =      3.90459  eV     2   --> B_1  D_3  S_3  
     e( 33 - 34) =      3.90459  eV     2   --> B_2  D_4  S_4  
     e( 35 - 36) =      4.85002  eV     2   --> B_1  D_3  S_3  
     e( 35 - 36) =      4.85002  eV     2   --> B_2  D_4  S_4  
     e( 37 - 37) =      9.36430  eV     1   --> A_1  D_1  S_1  
     e( 38 - 38) =      9.56404  eV     1   --> A_1  D_1  S_1  
     e( 39 - 39) =     10.01473  eV     1   --> A_1  D_1  S_1  
     e( 40 - 41) =     10.52355  eV     2   --> B_1  D_3  S_3  
     e( 40 - 41) =     10.52355  eV     2   --> B_2  D_4  S_4  
     e( 42 - 42) =     10.77599  eV     1   --> A_1  D_1  S_1  
     e( 43 - 43) =     10.93303  eV     1   --> A_1  D_1  S_1  
     e( 44 - 44) =     10.93313  eV     1   --> A_2  D_2  S_2  
     e( 45 - 46) =     13.06539  eV     2   --> B_1  D_3  S_3  
     e( 45 - 46) =     13.06539  eV     2   --> B_2  D_4  S_4  
     e( 47 - 48) =     14.30459  eV     2   --> B_1  D_3  S_3  
     e( 47 - 48) =     14.30459  eV     2   --> B_2  D_4  S_4  
     e( 49 - 50) =     14.40534  eV     2   --> A_1  D_1  S_1  
     e( 49 - 50) =     14.40534  eV     2   --> A_2  D_2  S_2  
     e( 51 - 51) =     14.74871  eV     1   --> A_1  D_1  S_1  
     e( 52 - 52) =     14.83746  eV     1   --> A_1  D_1  S_1  

 **************************************************************************

 **************************************************************************

                    xk=(   0.00000,   0.37500,   0.00000  )

     Band symmetry, C_2v (mm2)  point group:

     e(  1 -  1) =     -7.13371  eV     1   --> A_1  D_1  S_1  
     e(  2 -  2) =     -6.68282  eV     1   --> A_1  D_1  S_1  
     e(  3 -  3) =     -6.26271  eV     1   --> B_2  D_4  S_4  
     e(  4 -  4) =     -6.26258  eV     1   --> B_1  D_3  S_3  
     e(  5 -  5) =     -0.70845  eV     1   --> A_1  D_1  S_1  
     e(  6 -  6) =     -0.69871  eV     1   --> A_1  D_1  S_1  
     e(  7 -  8) =     -0.58120  eV     2   --> B_1  D_3  S_3  
     e(  7 -  8) =     -0.58120  eV     2   --> B_2  D_4  S_4  
     e(  9 -  9) =     -0.55544  eV     1   --> A_2  D_2  S_2  
     e( 10 - 10) =     -0.55523  eV     1   --> A_1  D_1  S_1  
     e( 11 - 12) =     -0.45698  eV     2   --> B_1  D_3  S_3  
     e( 11 - 12) =     -0.45698  eV     2   --> B_2  D_4  S_4  
     e( 13 - 14) =     -0.38436  eV     2   --> B_1  D_3  S_3  
     e( 13 - 14) =     -0.38436  eV     2   --> B_2  D_4  S_4  
     e( 15 - 15) =     -0.28110  eV     1   --> A_1  D_1  S_1  
     e( 16 - 16) =     -0.28043  eV     1   --> A_2  D_2  S_2  
     e( 17 - 17) =     -0.21131  eV     1   --> A_1  D_1  S_1  
     e( 18 - 18) =     -0.20431  eV     1   --> A_1  D_1  S_1  
     e( 19 - 19) =     -0.17406  eV     1   --> A_1  D_1  S_1  
     e( 20 - 20) =     -0.17368  eV     1   --> A_2  D_2  S_2  
     e( 21 - 21) =     -0.15926  eV     1   --> A_2  D_2  S_2  
     e( 22 - 22) =     -0.13177  eV     1   --> A_2  D_2  S_2  
     e( 23 - 24) =      0.17218  eV     2   --> B_1  D_3  S_3  
     e( 23 - 24) =      0.17218  eV     2   --> B_2  D_4  S_4  
     e( 25 - 25) =      1.06068  eV     1   --> A_1  D_1  S_1  
     e( 26 - 26) =      1.06082  eV     1   --> A_2  D_2  S_2  
     e( 27 - 27) =      2.33487  eV     1   --> A_1  D_1  S_1  
     e( 28 - 29) =      2.96255  eV     2   --> B_1  D_3  S_3  
     e( 28 - 29) =      2.96255  eV     2   --> B_2  D_4  S_4  
     e( 30 - 31) =      2.98228  eV     2   --> A_1  D_1  S_1  
     e( 30 - 31) =      2.98228  eV     2   --> A_2  D_2  S_2  
     e( 32 - 32) =      3.73676  eV     1   --> A_1  D_1  S_1  
     e( 33 - 34) =      3.97313  eV     2   --> B_1  D_3  S_3  
     e( 33 - 34) =      3.97313  eV     2   --> B_2  D_4  S_4  
     e( 35 - 36) =      4.76826  eV     2   --> B_1  D_3  S_3  
     e( 35 - 36) =      4.76826  eV     2   --> B_2  D_4  S_4  
     e( 37 - 37) =      9.50319  eV     1   --> A_1  D_1  S_1  
     e( 38 - 38) =      9.64383  eV     1   --> A_1  D_1  S_1  
     e( 39 - 39) =     10.04197  eV     1   --> A_1  D_1  S_1  
     e( 40 - 40) =     10.66012  eV     1   --> A_1  D_1  S_1  
     e( 41 - 42) =     10.69617  eV     2   --> B_1  D_3  S_3  
     e( 41 - 42) =     10.69617  eV     2   --> B_2  D_4  S_4  
     e( 43 - 43) =     11.07091  eV     1   --> A_1  D_1  S_1  
     e( 44 - 44) =     11.07102  eV     1   --> A_2  D_2  S_2  
     e( 45 - 46) =     13.21158  eV     2   --> B_1  D_3  S_3  
     e( 45 - 46) =     13.21158  eV     2   --> B_2  D_4  S_4  
     e( 47 - 48) =     14.06415  eV     2   --> B_1  D_3  S_3  
     e( 47 - 48) =     14.06415  eV     2   --> B_2  D_4  S_4  
     e( 49 - 50) =     14.23928  eV     2   --> A_1  D_1  S_1  
     e( 49 - 50) =     14.23928  eV     2   --> A_2  D_2  S_2  
     e( 51 - 51) =     14.62668  eV     1   --> A_1  D_1  S_1  
     e( 52 - 52) =     14.69216  eV     1   --> A_1  D_1  S_1  

 **************************************************************************

 **************************************************************************

                    xk=(   0.00000,   0.40000,   0.00000  )

     Band symmetry, C_2v (mm2)  point group:

     e(  1 -  1) =     -7.09286  eV     1   --> A_1  D_1  S_1  
     e(  2 -  2) =     -6.72898  eV     1   --> A_1  D_1  S_1  
     e(  3 -  3) =     -6.26243  eV     1   --> B_2  D_4  S_4  
     e(  4 -  4) =     -6.26230  eV     1   --> B_1  D_3  S_3  
     e(  5 -  5) =     -0.70948  eV     1   --> A_1  D_1  S_1  
     e(  6 -  6) =     -0.70150  eV     1   --> A_1  D_1  S_1  
     e(  7 -  8) =     -0.57045  eV     2   --> B_1  D_3  S_3  
     e(  7 -  8) =     -0.57045  eV     2   --> B_2  D_4  S_4  
     e(  9 -  9) =     -0.54760  eV     1   --> A_2  D_2  S_2  
     e( 10 - 10) =     -0.54740  eV     1   --> A_1  D_1  S_1  
     e( 11 - 12) =     -0.47017  eV     2   --> B_1  D_3  S_3  
     e( 11 - 12) =     -0.47017  eV     2   --> B_2  D_4  S_4  
     e( 13 - 14) =     -0.38676  eV     2   --> B_1  D_3  S_3  
     e( 13 - 14) =     -0.38676  eV     2   --> B_2  D_4  S_4  
     e( 15 - 15) =     -0.27207  eV     1   --> A_1  D_1  S_1  
     e( 16 - 16) =     -0.27142  eV     1   --> A_2  D_2  S_2  
     e( 17 - 17) =     -0.21377  eV     1   --> A_1  D_1  S_1  
     e( 18 - 18) =     -0.20993  eV     1   --> A_1  D_1  S_1  
     e( 19 - 19) =     -0.18349  eV     1   --> A_1  D_1  S_1  
     e( 20 - 20) =     -0.18312  eV     1   --> A_2  D_2  S_2  
     e( 21 - 21) =     -0.15662  eV     1   --> A_2  D_2  S_2  
     e( 22 - 22) =     -0.13441  eV     1   --> A_2  D_2  S_2  
     e( 23 - 24) =      0.18088  eV     2   --> B_1  D_3  S_3  
     e( 23 - 24) =      0.18088  eV     2   --> B_2  D_4  S_4  
     e( 25 - 25) =      1.05921  eV     1   --> A_1  D_1  S_1  
     e( 26 - 26) =      1.05936  eV     1   --> A_2  D_2  S_2  
     e( 27 - 27) =      2.46511  eV     1   --> A_1  D_1  S_1  
     e( 28 - 29) =      2.93829  eV     2   --> B_1  D_3  S_3  
     e( 28 - 29) =      2.93829  eV     2   --> B_2  D_4  S_4  
     e( 30 - 31) =      2.95909  eV     2   --> A_1  D_1  S_1  
     e( 30 - 31) =      2.95909  eV     2   --> A_2  D_2  S_2  
     e( 32 - 32) =      3.58882  eV     1   --> A_1  D_1  S_1  
     e( 33 - 34) =      4.04469  eV     2   --> B_1  D_3  S_3  
     e( 33 - 34) =      4.04469  eV     2   --> B_2  D_4  S_4  
     e( 35 - 36) =      4.68553  eV     2   --> B_1  D_3  S_3  
     e( 35 - 36) =      4.68553  eV     2   --> B_2  D_4  S_4  
     e( 37 - 37) =      9.63040  eV     1   --> A_1  D_1  S_1  
     e( 38 - 38) =      9.72797  eV     1   --> A_1  D_1  S_1  
     e( 39 - 39) =     10.06003  eV     1   --> A_1  D_1  S_1  
     e( 40 - 40) =     10.54551  eV     1   --> A_1  D_1  S_1  
     e( 41 - 42) =     10.86157  eV     2   --> B_1  D_3  S_3  
     e( 41 - 42) =     10.86157  eV     2   --> B_2  D_4  S_4  
     e( 43 - 43) =     11.19919  eV     1   --> A_1  D_1  S_1  
     e( 44 - 44) =     11.19930  eV     1   --> A_2  D_2  S_2  
     e( 45 - 46) =     13.36308  eV     2   --> B_1  D_3  S_3  
     e( 45 - 46) =     13.36308  eV     2   --> B_2  D_4  S_4  
     e( 47 - 48) =     13.84298  eV     2   --> B_1  D_3  S_3  
     e( 47 - 48) =     13.84298  eV     2   --> B_2  D_4  S_4  
     e( 49 - 50) =     14.08778  eV     2   --> A_1  D_1  S_1  
     e( 49 - 50) =     14.08778  eV     2   --> A_2  D_2  S_2  
     e( 51 - 51) =     14.52157  eV     1   --> A_1  D_1  S_1  
     e( 52 - 52) =     14.56794  eV     1   --> A_1  D_1  S_1  

 **************************************************************************

 **************************************************************************

                    xk=(   0.00000,   0.42500,   0.00000  )

     Band symmetry, C_2v (mm2)  point group:

     e(  1 -  1) =     -7.05043  eV     1   --> A_1  D_1  S_1  
     e(  2 -  2) =     -6.77568  eV     1   --> A_1  D_1  S_1  
     e(  3 -  3) =     -6.26220  eV     1   --> B_2  D_4  S_4  
     e(  4 -  4) =     -6.26207  eV     1   --> B_1  D_3  S_3  
     e(  5 -  5) =     -0.71013  eV     1   --> A_1  D_1  S_1  
     e(  6 -  6) =     -0.70396  eV     1   --> A_1  D_1  S_1  
     e(  7 -  8) =     -0.55910  eV     2   --> B_1  D_3  S_3  
     e(  7 -  8) =     -0.55910  eV     2   --> B_2  D_4  S_4  
     e(  9 -  9) =     -0.54132  eV     1   --> A_2  D_2  S_2  
     e( 10 - 10) =     -0.54113  eV     1   --> A_1  D_1  S_1  
     e( 11 - 12) =     -0.48345  eV     2   --> B_1  D_3  S_3  
     e( 11 - 12) =     -0.48345  eV     2   --> B_2  D_4  S_4  
     e( 13 - 14) =     -0.38865  eV     2   --> B_1  D_3  S_3  
     e( 13 - 14) =     -0.38865  eV     2   --> B_2  D_4  S_4  
     e( 15 - 15) =     -0.26243  eV     1   --> A_1  D_1  S_1  
     e( 16 - 16) =     -0.26179  eV     1   --> A_2  D_2  S_2  
     e( 17 - 17) =     -0.21591  eV     1   --> A_1  D_1  S_1  
     e( 18 - 18) =     -0.21411  eV     1   -->   ?
     e( 19 - 19) =     -0.19332  eV     1   --> A_1  D_1  S_1  
     e( 20 - 20) =     -0.19296  eV     1   -->   ?
     e( 21 - 21) =     -0.15392  eV     1   --> A_2  D_2  S_2  
     e( 22 - 22) =     -0.13712  eV     1   --> A_2  D_2  S_2  
     e( 23 - 24) =      0.18790  eV     2   --> B_1  D_3  S_3  
     e( 23 - 24) =      0.18790  eV     2   --> B_2  D_4  S_4  
     e( 25 - 25) =      1.05800  eV     1   --> A_1  D_1  S_1  
     e( 26 - 26) =      1.05816  eV     1   --> A_2  D_2  S_2  
     e( 27 - 27) =      2.59810  eV     1   --> A_1  D_1  S_1  
     e( 28 - 29) =      2.91888  eV     2   --> B_1  D_3  S_3  
     e( 28 - 29) =      2.91888  eV     2   --> B_2  D_4  S_4  
     e( 30 - 31) =      2.94054  eV     2   --> A_1  D_1  S_1  
     e( 30 - 31) =      2.94054  eV     2   --> A_2  D_2  S_2  
     e( 32 - 32) =      3.44213  eV     1   --> A_1  D_1  S_1  
     e( 33 - 34) =      4.11896  eV     2   --> B_1  D_3  S_3  
     e( 33 - 34) =      4.11896  eV     2   --> B_2  D_4  S_4  
     e( 35 - 36) =      4.60235  eV     2   --> B_1  D_3  S_3  
     e( 35 - 36) =      4.60235  eV     2   --> B_2  D_4  S_4  
     e( 37 - 37) =      9.74366  eV     1   --> A_1  D_1  S_1  
     e( 38 - 38) =      9.81563  eV     1   --> A_1  D_1  S_1  
     e( 39 - 39) =     10.06656  eV     1   --> A_1  D_1  S_1  
     e( 40 - 40) =     10.43326  eV     1   --> A_1  D_1  S_1  
     e( 41 - 42) =     11.01180  eV     2   --> B_1  D_3  S_3  
     e( 41 - 42) =     11.01180  eV     2   --> B_2  D_4  S_4  
     e( 43 - 43) =     11.31157  eV     1   --> A_1  D_1  S_1  
     e( 44 - 44) =     11.31169  eV     1   --> A_2  D_2  S_2  
     e( 45 - 46) =     13.52057  eV     2   --> B_1  D_3  S_3  
     e( 45 - 46) =     13.52057  eV     2   --> B_2  D_4  S_4  
     e( 47 - 48) =     13.64946  eV     2   --> B_1  D_3  S_3  
     e( 47 - 48) =     13.64946  eV     2   --> B_2  D_4  S_4  
     e( 49 - 50) =     13.95733  eV     2   --> A_1  D_1  S_1  
     e( 49 - 50) =     13.95733  eV     2   --> A_2  D_2  S_2  
     e( 51 - 51) =     14.43583  eV     1   --> A_1  D_1  S_1  
     e( 52 - 52) =     14.46744  eV     1   --> A_1  D_1  S_1  

 **************************************************************************

 **************************************************************************

                    xk=(   0.00000,   0.45000,   0.00000  )

     Band symmetry, C_2v (mm2)  point group:

     e(  1 -  1) =     -7.00662  eV     1   --> A_1  D_1  S_1  
     e(  2 -  2) =     -6.82258  eV     1   --> A_1  D_1  S_1  
     e(  3 -  3) =     -6.26203  eV     1   --> B_2  D_4  S_4  
     e(  4 -  4) =     -6.26190  eV     1   --> B_1  D_3  S_3  
     e(  5 -  5) =     -0.71028  eV     1   --> A_1  D_1  S_1  
     e(  6 -  6) =     -0.70602  eV     1   --> A_1  D_1  S_1  
     e(  7 -  8) =     -0.54727  eV     2   --> B_1  D_3  S_3  
     e(  7 -  8) =     -0.54727  eV     2   --> B_2  D_4  S_4  
     e(  9 -  9) =     -0.53676  eV     1   --> A_2  D_2  S_2  
     e( 10 - 10) =     -0.53659  eV     1   --> A_1  D_1  S_1  
     e( 11 - 12) =     -0.49663  eV     2   --> B_1  D_3  S_3  
     e( 11 - 12) =     -0.49663  eV     2   --> B_2  D_4  S_4  
     e( 13 - 14) =     -0.39001  eV     2   --> B_1  D_3  S_3  
     e( 13 - 14) =     -0.39001  eV     2   --> B_2  D_4  S_4  
     e( 15 - 15) =     -0.25251  eV     1   --> A_1  D_1  S_1  
     e( 16 - 16) =     -0.25186  eV     1   --> A_2  D_2  S_2  
     e( 17 - 17) =     -0.21763  eV     1   --> A_1  D_1  S_1  
     e( 18 - 18) =     -0.21680  eV     1   -->   ?
     e( 19 - 19) =     -0.20329  eV     1   --> A_1  D_1  S_1  
     e( 20 - 20) =     -0.20295  eV     1   -->   ?
     e( 21 - 21) =     -0.15113  eV     1   --> A_2  D_2  S_2  
     e( 22 - 22) =     -0.13987  eV     1   --> A_2  D_2  S_2  
     e( 23 - 24) =      0.19307  eV     2   --> B_1  D_3  S_3  
     e( 23 - 24) =      0.19307  eV     2   --> B_2  D_4  S_4  
     e( 25 - 25) =      1.05711  eV     1   --> A_1  D_1  S_1  
     e( 26 - 26) =      1.05727  eV     1   --> A_2  D_2  S_2  
     e( 27 - 27) =      2.73362  eV     1   --> A_1  D_1  S_1  
     e( 28 - 29) =      2.90472  eV     2   --> B_1  D_3  S_3  
     e( 28 - 29) =      2.90472  eV     2   --> B_2  D_4  S_4  
     e( 30 - 31) =      2.92702  eV     2   --> A_1  D_1  S_1  
     e( 30 - 31) =      2.92702  eV     2   --> A_2  D_2  S_2  
     e( 32 - 32) =      3.29689  eV     1   --> A_1  D_1  S_1  
     e( 33 - 34) =      4.19564  eV     2   --> B_1  D_3  S_3  
     e( 33 - 34) =      4.19564  eV     2   --> B_2  D_4  S_4  
     e( 35 - 36) =      4.51921  eV     2   --> B_1  D_3  S_3  
     e( 35 - 36) =      4.51921  eV     2   --> B_2  D_4  S_4  
     e( 37 - 37) =      9.84082  eV     1   --> A_1  D_1  S_1  
     e( 38 - 38) =      9.90584  eV     1   --> A_1  D_1  S_1  
     e( 39 - 39) =     10.06050  eV     1   --> A_1  D_1  S_1  
     e( 40 - 40) =     10.32397  eV     1   --> A_1  D_1  S_1  
     e( 41 - 42) =     11.13561  eV     2   --> B_1  D_3  S_3  
     e( 41 - 42) =     11.13561  eV     2   --> B_2  D_4  S_4  
     e( 43 - 43) =     11.40060  eV     1   --> A_1  D_1  S_1  
     e( 44 - 44) =     11.40072  eV     1   --> A_2  D_2  S_2  
     e( 45 - 46) =     13.49482  eV     2   --> B_1  D_3  S_3  
     e( 45 - 46) =     13.49482  eV     2   --> B_2  D_4  S_4  
     e( 47 - 48) =     13.68323  eV     2   --> B_1  D_3  S_3  
     e( 47 - 48) =     13.68323  eV     2   --> B_2  D_4  S_4  
     e( 49 - 50) =     13.85549  eV     2   --> A_1  D_1  S_1  
     e( 49 - 50) =     13.85549  eV     2   --> A_2  D_2  S_2  
     e( 51 - 51) =     14.37324  eV     1   --> A_1  D_1  S_1  
     e( 52 - 52) =     14.37684  eV     1   -->   ?

 **************************************************************************

 **************************************************************************

                    xk=(   0.00000,   0.47500,   0.00000  )

     Band symmetry, C_2v (mm2)  point group:

     e(  1 -  1) =     -6.96169  eV     1   --> A_1  D_1  S_1  
     e(  2 -  2) =     -6.86940  eV     1   --> A_1  D_1  S_1  
     e(  3 -  3) =     -6.26195  eV     1   --> B_2  D_4  S_4  
     e(  4 -  4) =     -6.26182  eV     1   --> B_1  D_3  S_3  
     e(  5 -  5) =     -0.70990  eV     1   --> A_1  D_1  S_1  
     e(  6 -  6) =     -0.70774  eV     1   --> A_1  D_1  S_1  
     e(  7 -  8) =     -0.53507  eV     2   --> B_1  D_3  S_3  
     e(  7 -  8) =     -0.53507  eV     2   --> B_2  D_4  S_4  
     e(  9 -  9) =     -0.53400  eV     1   --> A_2  D_2  S_2  
     e( 10 - 10) =     -0.53383  eV     1   --> A_1  D_1  S_1  
     e( 11 - 12) =     -0.50965  eV     2   --> B_1  D_3  S_3  
     e( 11 - 12) =     -0.50965  eV     2   --> B_2  D_4  S_4  
     e( 13 - 14) =     -0.39092  eV     2   --> B_1  D_3  S_3  
     e( 13 - 14) =     -0.39092  eV     2   --> B_2  D_4  S_4  
     e( 15 - 15) =     -0.24331  eV     1   --> A_1  D_1  S_1  
     e( 16 - 16) =     -0.24261  eV     1   -->   ?
     e( 17 - 17) =     -0.21881  eV     1   -->   ?
     e( 18 - 18) =     -0.21823  eV     1   -->   ?
     e( 19 - 19) =     -0.21257  eV     1   --> A_1  D_1  S_1  
     e( 20 - 20) =     -0.21229  eV     1   -->   ?
     e( 21 - 21) =     -0.14835  eV     1   --> A_2  D_2  S_2  
     e( 22 - 22) =     -0.14265  eV     1   --> A_2  D_2  S_2  
     e( 23 - 24) =      0.19618  eV     2   --> B_1  D_3  S_3  
     e( 23 - 24) =      0.19618  eV     2   --> B_2  D_4  S_4  
     e( 25 - 25) =      1.05654  eV     1   --> A_1  D_1  S_1  
     e( 26 - 26) =      1.05671  eV     1   --> A_2  D_2  S_2  
     e( 27 - 27) =      2.87145  eV     1   --> A_1  D_1  S_1  
     e( 28 - 29) =      2.89610  eV     2   --> B_1  D_3  S_3  
     e( 28 - 29) =      2.89610  eV     2   --> B_2  D_4  S_4  
     e( 30 - 31) =      2.91879  eV     2   --> A_1  D_1  S_1  
     e( 30 - 31) =      2.91879  eV     2   --> A_2  D_2  S_2  
     e( 32 - 32) =      3.15324  eV     1   --> A_1  D_1  S_1  
     e( 33 - 34) =      4.27437  eV     2   --> B_1  D_3  S_3  
     e( 33 - 34) =      4.27437  eV     2   --> B_2  D_4  S_4  
     e( 35 - 36) =      4.43654  eV     2   --> B_1  D_3  S_3  
     e( 35 - 36) =      4.43654  eV     2   --> B_2  D_4  S_4  
     e( 37 - 37) =      9.91981  eV     1   --> A_1  D_1  S_1  
     e( 38 - 38) =      9.98586  eV     1   --> A_1  D_1  S_1  
     e( 39 - 39) =     10.05229  eV     1   --> A_1  D_1  S_1  
     e( 40 - 40) =     10.21797  eV     1   --> A_1  D_1  S_1  
     e( 41 - 42) =     11.21894  eV     2   --> B_1  D_3  S_3  
     e( 41 - 42) =     11.21894  eV     2   --> B_2  D_4  S_4  
     e( 43 - 43) =     11.45816  eV     1   --> A_1  D_1  S_1  
     e( 44 - 44) =     11.45828  eV     1   --> A_2  D_2  S_2  
     e( 45 - 46) =     13.39281  eV     2   --> B_1  D_3  S_3  
     e( 45 - 46) =     13.39281  eV     2   --> B_2  D_4  S_4  
     e( 47 - 48) =     13.78945  eV     2   --> A_1  D_1  S_1  
     e( 47 - 48) =     13.78945  eV     2   --> A_2  D_2  S_2  
     e( 49 - 50) =     13.85046  eV     2   --> B_1  D_3  S_3  
     e( 49 - 50) =     13.85046  eV     2   --> B_2  D_4  S_4  
     e( 51 - 52) =     14.19770  eV     2   --> B_1  D_3  S_3  
     e( 51 - 52) =     14.19770  eV     2   --> B_2  D_4  S_4  

 **************************************************************************

 **************************************************************************

                    xk=(   0.00000,   0.50000,   0.00000  )

     point group D_2d (-42m)
     there are  5 classes
     the character table:

       E     2S4   C2    2C2'  2s_d 
A_1    1.00  1.00  1.00  1.00  1.00
A_2    1.00  1.00  1.00 -1.00 -1.00
B_1    1.00 -1.00  1.00  1.00 -1.00
B_2    1.00 -1.00  1.00 -1.00  1.00
E      2.00  0.00 -2.00  0.00  0.00

     the symmetry operations in each class and the name of the first element:

     E        1
                                                                 
     2S4      7    8
                                                                 
     C2       3
                                                                 
     2C2'     2    4
                                                                 
     2s_d     5    6
                                                                 

     Band symmetry, D_2d (-42m) point group:

     e(  1 -  1) =     -6.91592  eV     1   -->   ?
     e(  2 -  2) =     -6.91580  eV     1   -->   ?
     e(  3 -  3) =     -6.26191  eV     1   -->   ?
     e(  4 -  4) =     -6.26179  eV     1   -->   ?
     e(  5 -  5) =     -0.70926  eV     1   -->   ?
     e(  6 -  6) =     -0.70884  eV     1   -->   ?
     e(  7 -  7) =     -0.53307  eV     1   --> B_1  X_2  W_1' 
     e(  8 -  8) =     -0.53291  eV     1   --> B_2  X_3  W_2  
     e(  9 - 10) =     -0.52288  eV     2   --> E    X_5  W_3  
     e( 11 - 12) =     -0.52212  eV     2   --> E    X_5  W_3  
     e( 13 - 14) =     -0.39119  eV     2   --> E    X_5  W_3  
     e( 15 - 15) =     -0.23844  eV     1   --> A_1  X_1  W_1  
     e( 16 - 16) =     -0.23767  eV     1   -->   ?
     e( 17 - 17) =     -0.21922  eV     1   -->   ?
     e( 18 - 18) =     -0.21866  eV     1   -->   ?
     e( 19 - 19) =     -0.21744  eV     1   --> B_2  X_3  W_2  
     e( 20 - 20) =     -0.21723  eV     1   -->   ?
     e( 21 - 21) =     -0.14592  eV     1   --> B_1  X_2  W_1' 
     e( 22 - 22) =     -0.14508  eV     1   --> A_2  X_4  W_2' 
     e( 23 - 24) =      0.19724  eV     2   --> E    X_5  W_3  
     e( 25 - 25) =      1.05635  eV     1   --> A_1  X_1  W_1  
     e( 26 - 26) =      1.05652  eV     1   --> A_2  X_4  W_2' 
     e( 27 - 28) =      2.89320  eV     2   --> E    X_5  W_3  
     e( 29 - 30) =      2.91603  eV     2   --> B_1  X_2  W_1' 
     e( 29 - 30) =      2.91603  eV     2   --> B_2  X_3  W_2  
     e( 31 - 31) =      3.01132  eV     1   -->   ?
     e( 32 - 32) =      3.01143  eV     1   -->   ?
     e( 33 - 36) =      4.35470  eV     4   -->   2 E    X_5  W_3  
     e( 37 - 38) =      9.97748  eV     2   --> A_1  X_1  W_1  
     e( 37 - 38) =      9.97748  eV     2   --> B_2  X_3  W_2  
     e( 39 - 40) =     10.11804  eV     2   --> A_1  X_1  W_1  
     e( 39 - 40) =     10.11804  eV     2   --> B_2  X_3  W_2  
     e( 41 - 42) =     11.24862  eV     2   --> E    X_5  W_3  
     e( 43 - 43) =     11.47824  eV     1   --> A_1  X_1  W_1  
     e( 44 - 44) =     11.47837  eV     1   --> A_2  X_4  W_2' 
     e( 45 - 46) =     13.35693  eV     2   --> E    X_5  W_3  
     e( 47 - 48) =     13.76677  eV     2   --> B_1  X_2  W_1' 
     e( 47 - 48) =     13.76677  eV     2   --> B_2  X_3  W_2  
     e( 49 - 52) =     14.02203  eV     4   -->   2 E    X_5  W_3  

 **************************************************************************

 **************************************************************************

                    xk=(   0.02500,   0.50000,   0.00000  )

     point group C_2  (2)   
     there are  2 classes
     the character table:

       E     C2   
A      1.00  1.00
B      1.00 -1.00

     the symmetry operations in each class and the name of the first element:

     E        1
                                                                 
     C2       2
                                                                 

     Band symmetry, C_2  (2)    point group:

     e(  1 -  1) =     -6.91495  eV     1   -->   ?
     e(  2 -  2) =     -6.91482  eV     1   -->   ?
     e(  3 -  3) =     -6.26293  eV     1   -->   ?
     e(  4 -  4) =     -6.26280  eV     1   -->   ?
     e(  5 -  5) =     -0.70859  eV     1   -->   ?
     e(  6 -  6) =     -0.70816  eV     1   -->   ?
     e(  7 -  7) =     -0.53303  eV     1   --> A              
     e(  8 -  8) =     -0.53287  eV     1   --> B              
     e(  9 -  9) =     -0.52301  eV     1   -->   ?
     e( 10 - 10) =     -0.52285  eV     1   -->   ?
     e( 11 - 11) =     -0.52221  eV     1   -->   ?
     e( 12 - 12) =     -0.52206  eV     1   -->   ?
     e( 13 - 14) =     -0.39229  eV     2   --> A              
     e( 13 - 14) =     -0.39229  eV     2   --> B              
     e( 15 - 15) =     -0.23754  eV     1   --> A              
     e( 16 - 16) =     -0.23677  eV     1   --> B              
     e( 17 - 17) =     -0.21900  eV     1   --> A              
     e( 18 - 18) =     -0.21843  eV     1   --> B              
     e( 19 - 19) =     -0.21763  eV     1   --> B              
     e( 20 - 20) =     -0.21742  eV     1   --> A              
     e( 21 - 21) =     -0.14598  eV     1   --> A              
     e( 22 - 22) =     -0.14514  eV     1   --> B              
     e( 23 - 24) =      0.19577  eV     2   --> A              
     e( 23 - 24) =      0.19577  eV     2   --> B              
     e( 25 - 25) =      1.05677  eV     1   --> A              
     e( 26 - 26) =      1.05694  eV     1   --> B              
     e( 27 - 28) =      2.83888  eV     2   --> A              
     e( 27 - 28) =      2.83888  eV     2   --> B              
     e( 29 - 30) =      2.97830  eV     2   --> A              
     e( 29 - 30) =      2.97830  eV     2   --> B              
     e( 31 - 31) =      3.00350  eV     1   -->   ?
     e( 32 - 32) =      3.00361  eV     1   -->   ?
     e( 33 - 33) =      4.34935  eV     1   -->   ?
     e( 34 - 34) =      4.34946  eV     1   -->   ?
     e( 35 - 35) =      4.36037  eV     1   -->   ?
     e( 36 - 36) =      4.36048  eV     1   -->   ?
     e( 37 - 38) =      9.98105  eV     2   --> A              
     e( 37 - 38) =      9.98105  eV     2   --> B              
     e( 39 - 40) =     10.12659  eV     2   --> A              
     e( 39 - 40) =     10.12659  eV     2   --> B              
     e( 41 - 42) =     11.23834  eV     2   --> A              
     e( 41 - 42) =     11.23834  eV     2   --> B              
     e( 43 - 43) =     11.48520  eV     1   --> A              
     e( 44 - 44) =     11.48533  eV     1   --> B              
     e( 45 - 46) =     13.32298  eV     2   --> A              
     e( 45 - 46) =     13.32298  eV     2   --> B              
[...]
     e( 29 - 32) =      4.31571  eV     4   -->   2 A_1  D_1  S_1  
     e( 29 - 32) =      4.31571  eV     4   --> B_1  D_3  S_3  
     e( 29 - 32) =      4.31571  eV     4   --> B_2  D_4  S_4  
     e( 33 - 36) =      4.70050  eV     4   -->   2 A_2  D_2  S_2  
     e( 33 - 36) =      4.70050  eV     4   --> B_1  D_3  S_3  
     e( 33 - 36) =      4.70050  eV     4   --> B_2  D_4  S_4  
     e( 37 - 40) =      9.21439  eV     4   -->   2 A_1  D_1  S_1  
     e( 37 - 40) =      9.21439  eV     4   --> B_1  D_3  S_3  
     e( 37 - 40) =      9.21439  eV     4   --> B_2  D_4  S_4  
     e( 41 - 44) =     12.22376  eV     4   -->   2 A_1  D_1  S_1  
     e( 41 - 44) =     12.22376  eV     4   --> B_1  D_3  S_3  
     e( 41 - 44) =     12.22376  eV     4   --> B_2  D_4  S_4  
     e( 45 - 48) =     12.65871  eV     4   -->   2 A_2  D_2  S_2  
     e( 45 - 48) =     12.65871  eV     4   --> B_1  D_3  S_3  
     e( 45 - 48) =     12.65871  eV     4   --> B_2  D_4  S_4  
     e( 49 - 52) =     14.19412  eV     4   -->   2 A_1  D_1  S_1  
     e( 49 - 52) =     14.19412  eV     4   --> B_1  D_3  S_3  
     e( 49 - 52) =     14.19412  eV     4   --> B_2  D_4  S_4  

 **************************************************************************

 **************************************************************************

                    xk=(   0.50000,   0.50000,   0.35000  )

     Band symmetry, C_2v (mm2)  point group:

     e(  1 -  3) =     -6.57227  eV     3   -->   ?
     e(  4 -  4) =     -6.57205  eV     1   -->   ?
     e(  5 -  5) =     -0.55213  eV     1   -->   ?
     e(  6 -  6) =     -0.55203  eV     1   -->   ?
     e(  7 -  7) =     -0.55192  eV     1   -->   ?
     e(  8 -  8) =     -0.55167  eV     1   -->   ?
     e(  9 -  9) =     -0.54543  eV     1   -->   ?
     e( 10 - 12) =     -0.54525  eV     3   --> A_2  D_2  S_2  
     e( 10 - 12) =     -0.54525  eV     3   --> B_1  D_3  S_3  
     e( 10 - 12) =     -0.54525  eV     3   --> B_2  D_4  S_4  
     e( 13 - 13) =     -0.19534  eV     1   --> A_1  D_1  S_1  
     e( 14 - 14) =     -0.19508  eV     1   -->   ?
     e( 15 - 15) =     -0.19490  eV     1   -->   ?
     e( 16 - 16) =     -0.19454  eV     1   --> A_1  D_1  S_1  
     e( 17 - 17) =     -0.16131  eV     1   --> A_2  D_2  S_2  
     e( 18 - 18) =     -0.16097  eV     1   -->   ?
     e( 19 - 19) =     -0.16071  eV     1   -->   ?
     e( 20 - 20) =     -0.16016  eV     1   --> A_2  D_2  S_2  
     e( 21 - 23) =     -0.08862  eV     3   -->   ?
     e( 24 - 24) =     -0.08829  eV     1   -->   ?
     e( 25 - 28) =      0.65563  eV     4   -->   2 A_1  D_1  S_1  
     e( 25 - 28) =      0.65563  eV     4   --> B_1  D_3  S_3  
     e( 25 - 28) =      0.65563  eV     4   --> B_2  D_4  S_4  
     e( 29 - 32) =      4.41155  eV     4   -->   2 A_1  D_1  S_1  
     e( 29 - 32) =      4.41155  eV     4   --> B_1  D_3  S_3  
     e( 29 - 32) =      4.41155  eV     4   --> B_2  D_4  S_4  
     e( 33 - 36) =      4.70291  eV     4   -->   2 A_2  D_2  S_2  
     e( 33 - 36) =      4.70291  eV     4   --> B_1  D_3  S_3  
     e( 33 - 36) =      4.70291  eV     4   --> B_2  D_4  S_4  
     e( 37 - 40) =      9.11620  eV     4   -->   2 A_1  D_1  S_1  
     e( 37 - 40) =      9.11620  eV     4   --> B_1  D_3  S_3  
     e( 37 - 40) =      9.11620  eV     4   --> B_2  D_4  S_4  
     e( 41 - 44) =     12.27431  eV     4   -->   2 A_1  D_1  S_1  
     e( 41 - 44) =     12.27431  eV     4   --> B_1  D_3  S_3  
     e( 41 - 44) =     12.27431  eV     4   --> B_2  D_4  S_4  
     e( 45 - 48) =     12.60880  eV     4   -->   2 A_2  D_2  S_2  
     e( 45 - 48) =     12.60880  eV     4   --> B_1  D_3  S_3  
     e( 45 - 48) =     12.60880  eV     4   --> B_2  D_4  S_4  
     e( 49 - 52) =     14.25010  eV     4   -->   2 A_1  D_1  S_1  
     e( 49 - 52) =     14.25010  eV     4   --> B_1  D_3  S_3  
     e( 49 - 52) =     14.25010  eV     4   --> B_2  D_4  S_4  

 **************************************************************************

 **************************************************************************

                    xk=(   0.50000,   0.50000,   0.37500  )

     Band symmetry, C_2v (mm2)  point group:

     e(  1 -  3) =     -6.57079  eV     3   -->   ?
     e(  4 -  4) =     -6.57056  eV     1   -->   ?
     e(  5 -  6) =     -0.55241  eV     2   -->   ?
     e(  7 -  7) =     -0.55221  eV     1   -->   ?
     e(  8 -  8) =     -0.55195  eV     1   -->   ?
     e(  9 -  9) =     -0.54764  eV     1   -->   ?
     e( 10 - 12) =     -0.54745  eV     3   -->   ?
     e( 13 - 13) =     -0.17956  eV     1   --> A_1  D_1  S_1  
     e( 14 - 14) =     -0.17928  eV     1   -->   ?
     e( 15 - 15) =     -0.17907  eV     1   -->   ?
     e( 16 - 16) =     -0.17864  eV     1   --> A_1  D_1  S_1  
     e( 17 - 17) =     -0.15892  eV     1   --> A_2  D_2  S_2  
     e( 18 - 18) =     -0.15858  eV     1   -->   ?
     e( 19 - 19) =     -0.15832  eV     1   -->   ?
     e( 20 - 20) =     -0.15778  eV     1   --> A_2  D_2  S_2  
     e( 21 - 21) =     -0.07353  eV     1   -->   ?
     e( 22 - 23) =     -0.07340  eV     2   -->   ?
     e( 24 - 24) =     -0.07312  eV     1   -->   ?
     e( 25 - 28) =      0.58581  eV     4   -->   2 A_1  D_1  S_1  
     e( 25 - 28) =      0.58581  eV     4   --> B_1  D_3  S_3  
     e( 25 - 28) =      0.58581  eV     4   --> B_2  D_4  S_4  
     e( 29 - 32) =      4.49723  eV     4   -->   2 A_1  D_1  S_1  
     e( 29 - 32) =      4.49723  eV     4   --> B_1  D_3  S_3  
     e( 29 - 32) =      4.49723  eV     4   --> B_2  D_4  S_4  
     e( 33 - 36) =      4.70507  eV     4   -->   2 A_2  D_2  S_2  
     e( 33 - 36) =      4.70507  eV     4   --> B_1  D_3  S_3  
     e( 33 - 36) =      4.70507  eV     4   --> B_2  D_4  S_4  
     e( 37 - 40) =      9.02816  eV     4   -->   2 A_1  D_1  S_1  
     e( 37 - 40) =      9.02816  eV     4   --> B_1  D_3  S_3  
     e( 37 - 40) =      9.02816  eV     4   --> B_2  D_4  S_4  
     e( 41 - 44) =     12.32373  eV     4   -->   2 A_1  D_1  S_1  
     e( 41 - 44) =     12.32373  eV     4   --> B_1  D_3  S_3  
     e( 41 - 44) =     12.32373  eV     4   --> B_2  D_4  S_4  
     e( 45 - 48) =     12.56577  eV     4   -->   2 A_2  D_2  S_2  
     e( 45 - 48) =     12.56577  eV     4   --> B_1  D_3  S_3  
     e( 45 - 48) =     12.56577  eV     4   --> B_2  D_4  S_4  
     e( 49 - 52) =     14.28913  eV     4   -->   2 A_1  D_1  S_1  
     e( 49 - 52) =     14.28913  eV     4   --> B_1  D_3  S_3  
     e( 49 - 52) =     14.28913  eV     4   --> B_2  D_4  S_4  

 **************************************************************************

 **************************************************************************

                    xk=(   0.50000,   0.50000,   0.40000  )

     Band symmetry, C_2v (mm2)  point group:

     e(  1 -  3) =     -6.56952  eV     3   -->   ?
     e(  4 -  4) =     -6.56930  eV     1   -->   ?
     e(  5 -  6) =     -0.55264  eV     2   -->   ?
     e(  7 -  7) =     -0.55244  eV     1   -->   ?
     e(  8 -  8) =     -0.55217  eV     1   -->   ?
     e(  9 -  9) =     -0.54953  eV     1   -->   ?
     e( 10 - 12) =     -0.54933  eV     3   -->   ?
     e( 13 - 13) =     -0.16815  eV     1   --> A_1  D_1  S_1  
     e( 14 - 14) =     -0.16788  eV     1   -->   ?
     e( 15 - 15) =     -0.16766  eV     1   -->   ?
     e( 16 - 16) =     -0.16717  eV     1   --> A_1  D_1  S_1  
     e( 17 - 17) =     -0.15692  eV     1   --> A_2  D_2  S_2  
     e( 18 - 18) =     -0.15657  eV     1   -->   ?
     e( 19 - 19) =     -0.15632  eV     1   -->   ?
     e( 20 - 20) =     -0.15578  eV     1   --> A_2  D_2  S_2  
     e( 21 - 21) =     -0.05387  eV     1   -->   ?
     e( 22 - 22) =     -0.05369  eV     1   -->   ?
     e( 23 - 23) =     -0.05359  eV     1   -->   ?
     e( 24 - 24) =     -0.05342  eV     1   -->   ?
     e( 25 - 28) =      0.52248  eV     4   -->   2 A_1  D_1  S_1  
     e( 25 - 28) =      0.52248  eV     4   --> B_1  D_3  S_3  
     e( 25 - 28) =      0.52248  eV     4   --> B_2  D_4  S_4  
     e( 29 - 32) =      4.57080  eV     4   -->   2 A_1  D_1  S_1  
     e( 29 - 32) =      4.57080  eV     4   --> B_1  D_3  S_3  
     e( 29 - 32) =      4.57080  eV     4   --> B_2  D_4  S_4  
     e( 33 - 36) =      4.70691  eV     4   -->   2 A_2  D_2  S_2  
     e( 33 - 36) =      4.70691  eV     4   --> B_1  D_3  S_3  
     e( 33 - 36) =      4.70691  eV     4   --> B_2  D_4  S_4  
     e( 37 - 40) =      8.95235  eV     4   -->   2 A_1  D_1  S_1  
     e( 37 - 40) =      8.95235  eV     4   --> B_1  D_3  S_3  
     e( 37 - 40) =      8.95235  eV     4   --> B_2  D_4  S_4  
     e( 41 - 44) =     12.36953  eV     4   -->   2 A_1  D_1  S_1  
     e( 41 - 44) =     12.36953  eV     4   --> B_1  D_3  S_3  
     e( 41 - 44) =     12.36953  eV     4   --> B_2  D_4  S_4  
     e( 45 - 48) =     12.52982  eV     4   -->   2 A_2  D_2  S_2  
     e( 45 - 48) =     12.52982  eV     4   --> B_1  D_3  S_3  
     e( 45 - 48) =     12.52982  eV     4   --> B_2  D_4  S_4  
     e( 49 - 52) =     14.31340  eV     4   -->   2 A_1  D_1  S_1  
     e( 49 - 52) =     14.31340  eV     4   --> B_1  D_3  S_3  
     e( 49 - 52) =     14.31340  eV     4   --> B_2  D_4  S_4  

 **************************************************************************

 **************************************************************************

                    xk=(   0.50000,   0.50000,   0.42500  )

     Band symmetry, C_2v (mm2)  point group:

     e(  1 -  3) =     -6.56849  eV     3   -->   ?
     e(  4 -  4) =     -6.56827  eV     1   -->   ?
     e(  5 -  6) =     -0.55278  eV     2   -->   ?
     e(  7 -  7) =     -0.55261  eV     1   -->   ?
     e(  8 -  8) =     -0.55232  eV     1   -->   ?
     e(  9 -  9) =     -0.55100  eV     1   -->   ?
     e( 10 - 12) =     -0.55079  eV     3   -->   ?
     e( 13 - 13) =     -0.16070  eV     1   --> A_1  D_1  S_1  
     e( 14 - 14) =     -0.16043  eV     1   -->   ?
     e( 15 - 15) =     -0.16021  eV     1   -->   ?
     e( 16 - 16) =     -0.15970  eV     1   --> A_1  D_1  S_1  
     e( 17 - 17) =     -0.15532  eV     1   --> A_2  D_2  S_2  
     e( 18 - 18) =     -0.15498  eV     1   -->   ?
     e( 19 - 19) =     -0.15472  eV     1   -->   ?
     e( 20 - 20) =     -0.15418  eV     1   --> A_2  D_2  S_2  
     e( 21 - 21) =     -0.03149  eV     1   -->   ?
     e( 22 - 22) =     -0.03129  eV     1   -->   ?
     e( 23 - 23) =     -0.03119  eV     1   -->   ?
     e( 24 - 24) =     -0.03103  eV     1   -->   ?
     e( 25 - 28) =      0.46743  eV     4   -->   2 A_1  D_1  S_1  
     e( 25 - 28) =      0.46743  eV     4   --> B_1  D_3  S_3  
     e( 25 - 28) =      0.46743  eV     4   --> B_2  D_4  S_4  
     e( 29 - 32) =      4.63039  eV     4   -->   2 A_1  D_1  S_1  
     e( 29 - 32) =      4.63039  eV     4   --> B_1  D_3  S_3  
     e( 29 - 32) =      4.63039  eV     4   --> B_2  D_4  S_4  
     e( 33 - 36) =      4.70840  eV     4   -->   2 A_2  D_2  S_2  
     e( 33 - 36) =      4.70840  eV     4   --> B_1  D_3  S_3  
     e( 33 - 36) =      4.70840  eV     4   --> B_2  D_4  S_4  
     e( 37 - 40) =      8.89101  eV     4   -->   2 A_1  D_1  S_1  
     e( 37 - 40) =      8.89101  eV     4   --> B_1  D_3  S_3  
     e( 37 - 40) =      8.89101  eV     4   --> B_2  D_4  S_4  
     e( 41 - 44) =     12.40906  eV     4   -->   2 A_1  D_1  S_1  
     e( 41 - 44) =     12.40906  eV     4   --> B_1  D_3  S_3  
     e( 41 - 44) =     12.40906  eV     4   --> B_2  D_4  S_4  
     e( 45 - 48) =     12.50180  eV     4   -->   2 A_2  D_2  S_2  
     e( 45 - 48) =     12.50180  eV     4   --> B_1  D_3  S_3  
     e( 45 - 48) =     12.50180  eV     4   --> B_2  D_4  S_4  
     e( 49 - 52) =     14.32633  eV     4   -->   2 A_1  D_1  S_1  
     e( 49 - 52) =     14.32633  eV     4   --> B_1  D_3  S_3  
     e( 49 - 52) =     14.32633  eV     4   --> B_2  D_4  S_4  

 **************************************************************************

 **************************************************************************

                    xk=(   0.50000,   0.50000,   0.45000  )

     Band symmetry, C_2v (mm2)  point group:

     e(  1 -  3) =     -6.56774  eV     3   -->   ?
     e(  4 -  4) =     -6.56751  eV     1   -->   ?
     e(  5 -  7) =     -0.55287  eV     3   -->   ?
     e(  8 -  8) =     -0.55241  eV     1   -->   ?
     e(  9 -  9) =     -0.55203  eV     1   -->   ?
     e( 10 - 12) =     -0.55182  eV     3   -->   ?
     e( 13 - 13) =     -0.15624  eV     1   --> A_1  D_1  S_1  
     e( 14 - 14) =     -0.15599  eV     1   -->   ?
     e( 15 - 15) =     -0.15577  eV     1   -->   ?
     e( 16 - 16) =     -0.15525  eV     1   --> A_1  D_1  S_1  
     e( 17 - 17) =     -0.15413  eV     1   --> A_2  D_2  S_2  
     e( 18 - 18) =     -0.15379  eV     1   -->   ?
     e( 19 - 19) =     -0.15354  eV     1   -->   ?
     e( 20 - 20) =     -0.15300  eV     1   --> A_2  D_2  S_2  
     e( 21 - 21) =     -0.01001  eV     1   -->   ?
     e( 22 - 22) =     -0.00980  eV     1   -->   ?
     e( 23 - 23) =     -0.00970  eV     1   -->   ?
     e( 24 - 24) =     -0.00956  eV     1   -->   ?
     e( 25 - 28) =      0.42331  eV     4   -->   2 A_1  D_1  S_1  
     e( 25 - 28) =      0.42331  eV     4   --> B_1  D_3  S_3  
     e( 25 - 28) =      0.42331  eV     4   --> B_2  D_4  S_4  
     e( 29 - 32) =      4.67433  eV     4   -->   2 A_1  D_1  S_1  
     e( 29 - 32) =      4.67433  eV     4   --> B_1  D_3  S_3  
     e( 29 - 32) =      4.67433  eV     4   --> B_2  D_4  S_4  
     e( 33 - 36) =      4.70950  eV     4   -->   2 A_2  D_2  S_2  
     e( 33 - 36) =      4.70950  eV     4   --> B_1  D_3  S_3  
     e( 33 - 36) =      4.70950  eV     4   --> B_2  D_4  S_4  
     e( 37 - 40) =      8.84570  eV     4   -->   2 A_1  D_1  S_1  
     e( 37 - 40) =      8.84570  eV     4   --> B_1  D_3  S_3  
     e( 37 - 40) =      8.84570  eV     4   --> B_2  D_4  S_4  
     e( 41 - 44) =     12.43942  eV     4   -->   2 A_1  D_1  S_1  
     e( 41 - 44) =     12.43942  eV     4   --> B_1  D_3  S_3  
     e( 41 - 44) =     12.43942  eV     4   --> B_2  D_4  S_4  
     e( 45 - 48) =     12.48170  eV     4   -->   2 A_2  D_2  S_2  
     e( 45 - 48) =     12.48170  eV     4   --> B_1  D_3  S_3  
     e( 45 - 48) =     12.48170  eV     4   --> B_2  D_4  S_4  
     e( 49 - 52) =     14.33173  eV     4   -->   2 A_1  D_1  S_1  
     e( 49 - 52) =     14.33173  eV     4   --> B_1  D_3  S_3  
     e( 49 - 52) =     14.33173  eV     4   --> B_2  D_4  S_4  

 **************************************************************************

 **************************************************************************

                    xk=(   0.50000,   0.50000,   0.47500  )

     Band symmetry, C_2v (mm2)  point group:

     e(  1 -  3) =     -6.56728  eV     3   -->   ?
     e(  4 -  4) =     -6.56705  eV     1   -->   ?
     e(  5 -  7) =     -0.55298  eV     3   -->   ?
     e(  8 -  8) =     -0.55270  eV     1   -->   ?
     e(  9 - 10) =     -0.55246  eV     2   -->   ?
     e( 11 - 12) =     -0.55230  eV     2   -->   ?
     e( 13 - 13) =     -0.15383  eV     1   -->   ?
     e( 14 - 14) =     -0.15359  eV     1   -->   ?
     e( 15 - 16) =     -0.15342  eV     2   -->   ?
     e( 17 - 17) =     -0.15307  eV     1   -->   ?
     e( 18 - 19) =     -0.15285  eV     2   -->   ?
     e( 20 - 20) =     -0.15228  eV     1   -->   ?
     e( 21 - 21) =      0.00606  eV     1   --> A_1  D_1  S_1  
     e( 22 - 23) =      0.00627  eV     2   -->   ?
     e( 24 - 24) =      0.00650  eV     1   -->   ?
     e( 25 - 28) =      0.39395  eV     4   -->   2 A_1  D_1  S_1  
     e( 25 - 28) =      0.39395  eV     4   --> B_1  D_3  S_3  
     e( 25 - 28) =      0.39395  eV     4   --> B_2  D_4  S_4  
     e( 29 - 32) =      4.70128  eV     4   -->   2 A_1  D_1  S_1  
     e( 29 - 32) =      4.70128  eV     4   --> B_1  D_3  S_3  
     e( 29 - 32) =      4.70128  eV     4   --> B_2  D_4  S_4  
     e( 33 - 36) =      4.71016  eV     4   -->   2 A_2  D_2  S_2  
     e( 33 - 36) =      4.71016  eV     4   --> B_1  D_3  S_3  
     e( 33 - 36) =      4.71016  eV     4   --> B_2  D_4  S_4  
     e( 37 - 40) =      8.81795  eV     4   -->   2 A_1  D_1  S_1  
     e( 37 - 40) =      8.81795  eV     4   --> B_1  D_3  S_3  
     e( 37 - 40) =      8.81795  eV     4   --> B_2  D_4  S_4  
     e( 41 - 44) =     12.45882  eV     4   -->   2 A_1  D_1  S_1  
     e( 41 - 44) =     12.45882  eV     4   --> B_1  D_3  S_3  
     e( 41 - 44) =     12.45882  eV     4   --> B_2  D_4  S_4  
     e( 45 - 48) =     12.46952  eV     4   -->   2 A_2  D_2  S_2  
     e( 45 - 48) =     12.46952  eV     4   --> B_1  D_3  S_3  
     e( 45 - 48) =     12.46952  eV     4   --> B_2  D_4  S_4  
     e( 49 - 52) =     14.33326  eV     4   -->   2 A_1  D_1  S_1  
     e( 49 - 52) =     14.33326  eV     4   --> B_1  D_3  S_3  
     e( 49 - 52) =     14.33326  eV     4   --> B_2  D_4  S_4  

 **************************************************************************

 **************************************************************************

                    xk=(   0.50000,   0.50000,   0.50000  )

     point group T_d (-43m) 
     there are  5 classes
     the character table:

       E     8C3   3C2   6S4   6s_d 
A_1    1.00  1.00  1.00  1.00  1.00
A_2    1.00  1.00  1.00 -1.00 -1.00
E      2.00 -1.00  2.00  0.00  0.00
T_1    3.00  0.00 -1.00  1.00 -1.00
T_2    3.00  0.00 -1.00 -1.00  1.00

     the symmetry operations in each class and the name of the first element:

     E        1
                                                                 
     8C3      5    7    8    6   12    9   10   11
                                                                 
     3C2      2    3    4
                                                                 
     6S4     15   16   20   19   23   24
                                                                 
     6s_d    13   14   17   18   21   22
                                                                 

     Band symmetry, T_d (-43m)  point group:

     e(  1 -  3) =     -6.56712  eV     3   -->   ?
     e(  4 -  4) =     -6.56690  eV     1   -->   ?
     e(  5 -  8) =     -0.55306  eV     4   -->   ?
     e(  9 -  9) =     -0.55267  eV     1   -->   ?
     e( 10 - 12) =     -0.55248  eV     3   -->   ?
     e( 13 - 13) =     -0.15318  eV     1   -->   ?
     e( 14 - 14) =     -0.15308  eV     1   -->   ?
     e( 15 - 15) =     -0.15291  eV     1   -->   ?
     e( 16 - 17) =     -0.15277  eV     2   -->   ?
     e( 18 - 18) =     -0.15253  eV     1   -->   ?
     e( 19 - 20) =     -0.15211  eV     2   -->   ?
     e( 21 - 21) =      0.01211  eV     1   -->   ?
     e( 22 - 23) =      0.01233  eV     2   -->   ?
     e( 24 - 24) =      0.01255  eV     1   -->   ?
     e( 25 - 28) =      0.38351  eV     4   --> A_1  G_1  P_1  
     e( 25 - 28) =      0.38351  eV     4   --> T_2  G_15 P_4  
     e( 29 - 36) =      4.71034  eV     8   --> E    G_12 P_3  
     e( 29 - 36) =      4.71034  eV     8   --> T_1  G_25 P_5  
     e( 29 - 36) =      4.71034  eV     8   --> T_2  G_15 P_4  
     e( 37 - 40) =      8.80859  eV     4   --> A_1  G_1  P_1  
     e( 37 - 40) =      8.80859  eV     4   --> T_2  G_15 P_4  
     e( 41 - 48) =     12.46542  eV     8   --> E    G_12 P_3  
     e( 41 - 48) =     12.46542  eV     8   --> T_1  G_25 P_5  
     e( 41 - 48) =     12.46542  eV     8   --> T_2  G_15 P_4  
     e( 49 - 52) =     14.33347  eV     4   --> A_1  G_1  P_1  
     e( 49 - 52) =     14.33347  eV     4   --> T_2  G_15 P_4  

 **************************************************************************
 
     BANDS        :   2m47.62s CPU   3m34.11s WALL

 
   This run was terminated on:  16:25:21  31Mar2023            

=------------------------------------------------------------------------------=
   JOB DONE.
=------------------------------------------------------------------------------=
